DF-ISE text

Info {
  version   = 1.0
  type      = xyplot
  datasets  = [
    "time"
    "gate OuterVoltage" "gate InnerVoltage" "gate QuasiFermiPotential" "gate DisplacementCurrent" "gate eCurrent"
    "gate hCurrent" "gate TotalCurrent" "gate Charge" "substrate OuterVoltage" "substrate InnerVoltage"
    "substrate QuasiFermiPotential" "substrate DisplacementCurrent" "substrate eCurrent" "substrate hCurrent" "substrate TotalCurrent"
    "substrate Charge" "drain OuterVoltage" "drain InnerVoltage" "drain QuasiFermiPotential" "drain DisplacementCurrent"
    "drain eCurrent" "drain hCurrent" "drain TotalCurrent" "drain Charge" "source OuterVoltage"
    "source InnerVoltage" "source QuasiFermiPotential" "source DisplacementCurrent" "source eCurrent" "source hCurrent"
    "source TotalCurrent" "source Charge" ]
  functions = [
    Time
    OuterVoltage InnerVoltage QuasiFermiPotential DisplacementCurrent eCurrent
    hCurrent TotalCurrent Charge OuterVoltage InnerVoltage
    QuasiFermiPotential DisplacementCurrent eCurrent hCurrent TotalCurrent
    Charge OuterVoltage InnerVoltage QuasiFermiPotential DisplacementCurrent
    eCurrent hCurrent TotalCurrent Charge OuterVoltage
    InnerVoltage QuasiFermiPotential DisplacementCurrent eCurrent hCurrent
    TotalCurrent Charge ]
}

Data {
      0.00000000000000E+00
      1.00000000000000E+00   1.00000000000000E+00   0.00000000000000E+00   0.00000000000000E+00   2.25760563177639E-37
     -2.25760563177639E-37   0.00000000000000E+00   6.64294160466163E-16   0.00000000000000E+00   0.00000000000000E+00
      0.00000000000000E+00   0.00000000000000E+00   3.44087489636103E-13   4.61373409944450E-19   3.44087951009513E-13
      6.66718663746718E-15  -1.00000000000000E+00  -1.00000000000000E+00   0.00000000000000E+00   0.00000000000000E+00
     -1.24703927547900E-21  -5.44135451254892E-04  -5.44135451254892E-04  -4.43631184980510E-15   0.00000000000000E+00
      0.00000000000000E+00   0.00000000000000E+00   0.00000000000000E+00   7.66217223395342E-23   5.44135450910805E-04
      5.44135450910805E-04  -2.89516894812825E-15
      1.00000000000000E-03
      9.97500000000000E-01   9.97500000000000E-01   0.00000000000000E+00   0.00000000000000E+00   2.62792368845157E-35
     -2.62792368845157E-35   0.00000000000000E+00   6.63223604761216E-16   0.00000000000000E+00   0.00000000000000E+00
      0.00000000000000E+00   0.00000000000000E+00   3.44089728067029E-13  -4.47704650936992E-14   2.99319262973330E-13
      6.66719893152114E-15  -1.00000000000000E+00  -1.00000000000000E+00   0.00000000000000E+00   0.00000000000000E+00
     -1.24604006857204E-21  -5.44292286023264E-04  -5.44292286023264E-04  -4.43571376846764E-15   0.00000000000000E+00
      0.00000000000000E+00   0.00000000000000E+00   0.00000000000000E+00   7.66609216052151E-23   5.44292285723945E-04
      5.44292285723945E-04  -2.89470876781472E-15
      2.30000000000000E-03
      9.94250000000000E-01   9.94250000000000E-01   0.00000000000000E+00   0.00000000000000E+00   5.88990479878040E-37
     -5.88990479878040E-37   0.00000000000000E+00   6.61831901697945E-16   0.00000000000000E+00   0.00000000000000E+00
      0.00000000000000E+00   0.00000000000000E+00   3.44092638250805E-13  -7.41779673587753E-16   3.43350858577217E-13
      6.66721491401477E-15  -1.00000000000000E+00  -1.00000000000000E+00   0.00000000000000E+00   0.00000000000000E+00
     -1.24708132686585E-21  -5.44496192415891E-04  -5.44496192415891E-04  -4.43493626004863E-15   0.00000000000000E+00
      0.00000000000000E+00   0.00000000000000E+00   0.00000000000000E+00   7.66221350137385E-23   5.44496192072541E-04
      5.44496192072541E-04  -2.89411055566408E-15
      3.99000000000000E-03
      9.90025000000000E-01   9.90025000000000E-01   0.00000000000000E+00   0.00000000000000E+00   1.24357887752601E-36
     -1.24357887752601E-36   0.00000000000000E+00   6.60022720691189E-16   0.00000000000000E+00   0.00000000000000E+00
      0.00000000000000E+00   0.00000000000000E+00   3.44096421824415E-13  -1.94037768722560E-15   3.42156044137190E-13
      6.66723569231078E-15  -1.00000000000000E+00  -1.00000000000000E+00   0.00000000000000E+00   0.00000000000000E+00
     -1.24709692136129E-21  -5.44761307608116E-04  -5.44761307608116E-04  -4.43392549520110E-15   0.00000000000000E+00
      0.00000000000000E+00   0.00000000000000E+00   0.00000000000000E+00   7.66978101408657E-23   5.44761307265960E-04
      5.44761307265960E-04  -2.89333291780087E-15
      6.18700000000000E-03
      9.84532500000000E-01   9.84532500000000E-01   0.00000000000000E+00   0.00000000000000E+00   3.15409271677678E-36
     -3.15409271677678E-36   0.00000000000000E+00   6.57670842004306E-16   0.00000000000000E+00   0.00000000000000E+00
      0.00000000000000E+00   0.00000000000000E+00   3.44101340980117E-13  -5.00420492111513E-15   3.39097136059002E-13
      6.66726270772014E-15  -1.00000000000000E+00  -1.00000000000000E+00   0.00000000000000E+00   0.00000000000000E+00
     -1.24707685905278E-21  -5.45106027113567E-04  -5.45106027113567E-04  -4.43261149525909E-15   0.00000000000000E+00
      0.00000000000000E+00   0.00000000000000E+00   0.00000000000000E+00   7.67674197657898E-23   5.45106026774471E-04
      5.45106026774471E-04  -2.89232205446534E-15
      9.04310000000000E-03
      9.77392250000000E-01   9.77392250000000E-01   0.00000000000000E+00   0.00000000000000E+00   8.63409115341341E-36
     -8.63409115341341E-36   0.00000000000000E+00   6.54613498002377E-16   0.00000000000000E+00   0.00000000000000E+00
      0.00000000000000E+00   0.00000000000000E+00   3.44107738120581E-13  -1.33002465064201E-14   3.30807491614161E-13
      6.66729783886088E-15  -1.00000000000000E+00  -1.00000000000000E+00   0.00000000000000E+00   0.00000000000000E+00
     -1.24693421038603E-21  -5.45554245479526E-04  -5.45554245479526E-04  -4.43090329222711E-15   0.00000000000000E+00
      0.00000000000000E+00   0.00000000000000E+00   0.00000000000000E+00   7.68124627350827E-23   5.45554245148719E-04
      5.45554245148719E-04  -2.89100804463617E-15
      1.27560300000000E-02
      9.68109925000000E-01   9.68109925000000E-01   0.00000000000000E+00   0.00000000000000E+00   2.51476366834173E-35
     -2.51476366834173E-35   0.00000000000000E+00   6.50639005766911E-16   0.00000000000000E+00   0.00000000000000E+00
      0.00000000000000E+00   0.00000000000000E+00   3.44116039742907E-13  -7.15344182724813E-14   2.72581621470426E-13
      6.66734330291153E-15  -1.00000000000000E+00  -1.00000000000000E+00   0.00000000000000E+00   0.00000000000000E+00
     -1.24595794659456E-21  -5.46135490657016E-04  -5.46135490657016E-04  -4.42868271251240E-15   0.00000000000000E+00
      0.00000000000000E+00   0.00000000000000E+00   0.00000000000000E+00   7.70582334871173E-23   5.46135490384436E-04
      5.46135490384436E-04  -2.88929959616605E-15
      1.75828390000000E-02
      9.56042902500000E-01   9.56042902500000E-01   0.00000000000000E+00   0.00000000000000E+00   7.01393767225456E-35
     -7.01393767225456E-35   0.00000000000000E+00   6.45472465328638E-16   0.00000000000000E+00   0.00000000000000E+00
      0.00000000000000E+00   0.00000000000000E+00   3.44126839407206E-13  -8.78733651224113E-14   2.56253474284794E-13
      6.66740246104743E-15  -1.00000000000000E+00  -1.00000000000000E+00   0.00000000000000E+00   0.00000000000000E+00
     -1.24465791651184E-21  -5.46891397832155E-04  -5.46891397832155E-04  -4.42579597781503E-15   0.00000000000000E+00
      0.00000000000000E+00   0.00000000000000E+00   0.00000000000000E+00   7.71476158017913E-23   5.46891397575901E-04
      5.46891397575901E-04  -2.88707894856107E-15
      2.38576907000000E-02
      9.40355773250000E-01   9.40355773250000E-01   0.00000000000000E+00   0.00000000000000E+00   2.04861822409223E-34
     -2.04861822409223E-34   0.00000000000000E+00   6.38756359323525E-16   0.00000000000000E+00   0.00000000000000E+00
      0.00000000000000E+00   0.00000000000000E+00   3.44140880339230E-13  -2.70802025525273E-13   7.33388548139576E-14
      6.66747923423950E-15  -1.00000000000000E+00  -1.00000000000000E+00   0.00000000000000E+00   0.00000000000000E+00
     -1.23946115833273E-21  -5.47873514034179E-04  -5.47873514034179E-04  -4.42204308505041E-15   0.00000000000000E+00
      0.00000000000000E+00   0.00000000000000E+00   0.00000000000000E+00   7.75074916566370E-23   5.47873513960841E-04
      5.47873513960841E-04  -2.88419250851263E-15
      3.20149979100000E-02
      9.19962505225000E-01   9.19962505225000E-01   0.00000000000000E+00   0.00000000000000E+00   2.31013585035355E-37
     -2.31013585035355E-37   0.00000000000000E+00   6.30026220602468E-16   0.00000000000000E+00   0.00000000000000E+00
      0.00000000000000E+00   0.00000000000000E+00   3.44159117349882E-13  -5.37154363399272E-19   3.44158580195518E-13
      6.66757906422529E-15  -1.00000000000000E+00  -1.00000000000000E+00   0.00000000000000E+00   0.00000000000000E+00
     -1.24780872357051E-21  -5.49150668113266E-04  -5.49150668113266E-04  -4.41716437730611E-15   0.00000000000000E+00
      0.00000000000000E+00   0.00000000000000E+00   0.00000000000000E+00   7.73387699879925E-23   5.49150667769108E-04
      5.49150667769108E-04  -2.88044090752168E-15
      4.24563511388000E-02
      8.93859122153000E-01   8.93859122153000E-01   0.00000000000000E+00   0.00000000000000E+00   2.35933928599876E-37
     -2.35933928599876E-37   0.00000000000000E+00   6.18852735359524E-16   0.00000000000000E+00   0.00000000000000E+00
      0.00000000000000E+00   0.00000000000000E+00   3.44182383422545E-13  -8.19954133459330E-19   3.44181563468411E-13
      6.66770642585922E-15  -1.00000000000000E+00  -1.00000000000000E+00   0.00000000000000E+00   0.00000000000000E+00
     -1.24805918029006E-21  -5.50783478306355E-04  -5.50783478306355E-04  -4.41091960839606E-15   0.00000000000000E+00
      0.00000000000000E+00   0.00000000000000E+00   0.00000000000000E+00   7.75654338817992E-23   5.50783477962174E-04
      5.50783477962174E-04  -2.87563955282268E-15
      5.58212832716640E-02
      8.60446791820840E-01   8.60446791820840E-01   0.00000000000000E+00   0.00000000000000E+00   2.28404218639741E-37
     -2.28404218639741E-37   0.00000000000000E+00   6.04552829562459E-16   0.00000000000000E+00   0.00000000000000E+00
      0.00000000000000E+00   0.00000000000000E+00   3.44212053839347E-13   2.82677555162170E-19   3.44212336516902E-13
      6.66786928472821E-15  -1.00000000000000E+00  -1.00000000000000E+00   0.00000000000000E+00   0.00000000000000E+00
     -1.24837977480948E-21  -5.52873350212846E-04  -5.52873350212846E-04  -4.40292641766455E-15   0.00000000000000E+00
      0.00000000000000E+00   0.00000000000000E+00   0.00000000000000E+00   7.78375039188936E-23   5.52873349868633E-04
      5.52873349868633E-04  -2.86949569662612E-15
      7.29283964017299E-02
      8.17679008995675E-01   8.17679008995675E-01   0.00000000000000E+00   0.00000000000000E+00   2.38875231898247E-37
     -2.38875231898247E-37   0.00000000000000E+00   5.86252798519076E-16   0.00000000000000E+00   0.00000000000000E+00
      0.00000000000000E+00   0.00000000000000E+00   3.44249859036978E-13   2.37880572570137E-19   3.44250096917551E-13
      6.66807777343882E-15  -1.00000000000000E+00  -1.00000000000000E+00   0.00000000000000E+00   0.00000000000000E+00
     -1.24878980740244E-21  -5.55548362560847E-04  -5.55548362560847E-04  -4.39269582969343E-15   0.00000000000000E+00
      0.00000000000000E+00   0.00000000000000E+00   0.00000000000000E+00   7.81990026729879E-23   5.55548362216597E-04
      5.55548362216597E-04  -2.86163474226447E-15
      9.48255012082143E-02
      7.62936246979464E-01   7.62936246979464E-01   0.00000000000000E+00   0.00000000000000E+00   2.43589229143079E-37
     -2.43589229143079E-37   0.00000000000000E+00   5.62835344676689E-16   0.00000000000000E+00   0.00000000000000E+00
      0.00000000000000E+00   0.00000000000000E+00   3.44297882940145E-13   4.10997845014278E-18   3.44301992918595E-13
      6.66834432527158E-15  -1.00000000000000E+00  -1.00000000000000E+00   0.00000000000000E+00   0.00000000000000E+00
     -1.24931102966802E-21  -5.58967749038690E-04  -5.58967749038690E-04  -4.37960267513877E-15   0.00000000000000E+00
      0.00000000000000E+00   0.00000000000000E+00   0.00000000000000E+00   7.87194420128678E-23   5.58967748694391E-04
      5.58967748694391E-04  -2.85157699480950E-15
      1.00000000000000E-01
      7.50000000000000E-01   7.50000000000000E-01   0.00000000000000E+00   0.00000000000000E+00   2.31742961160730E-37
     -2.31742961160730E-37   0.00000000000000E+00   5.57302409508127E-16   0.00000000000000E+00   0.00000000000000E+00
      0.00000000000000E+00   0.00000000000000E+00   3.44309077757304E-13  -5.85229566249604E-19   3.44308492527737E-13
      6.66840659648128E-15  -1.00000000000000E+00  -1.00000000000000E+00   0.00000000000000E+00   0.00000000000000E+00
     -1.24943801006162E-21  -5.59770679012570E-04  -5.59770679012570E-04  -4.37650934129383E-15   0.00000000000000E+00
      0.00000000000000E+00   0.00000000000000E+00   0.00000000000000E+00   7.88013652610193E-23   5.59770678668262E-04
      5.59770678668262E-04  -2.84919966469560E-15
      1.28028294152300E-01
      6.79929264619250E-01   6.79929264619250E-01   0.00000000000000E+00   0.00000000000000E+00   3.62446716609431E-37
     -3.62446716609431E-37   0.00000000000000E+00   5.27340355081230E-16   0.00000000000000E+00   0.00000000000000E+00
      0.00000000000000E+00   0.00000000000000E+00   3.44369120633407E-13  -4.18624378051379E-17   3.44327258195602E-13
      6.66874497290552E-15  -1.00000000000000E+00  -1.00000000000000E+00   0.00000000000000E+00   0.00000000000000E+00
     -1.24998482335417E-21  -5.64118351394695E-04  -5.64118351394695E-04  -4.35975650199789E-15   0.00000000000000E+00
      0.00000000000000E+00   0.00000000000000E+00   0.00000000000000E+00   7.93811613595790E-23   5.64118351050369E-04
      5.64118351050369E-04  -2.83632882598886E-15
      1.63904510667244E-01
      5.90238723331890E-01   5.90238723331890E-01   0.00000000000000E+00   0.00000000000000E+00   6.35317728842050E-37
     -6.35317728842050E-37   0.00000000000000E+00   4.89009551085906E-16   0.00000000000000E+00   0.00000000000000E+00
      0.00000000000000E+00   0.00000000000000E+00   3.44444264252116E-13   6.83374049450216E-17   3.44512601657061E-13
      6.66917809110689E-15  -1.00000000000000E+00  -1.00000000000000E+00   0.00000000000000E+00   0.00000000000000E+00
     -1.25050166577340E-21  -5.69678987406185E-04  -5.69678987406185E-04  -4.33831856849163E-15   0.00000000000000E+00
      0.00000000000000E+00   0.00000000000000E+00   0.00000000000000E+00   8.01874532243125E-23   5.69678987061673E-04
      5.69678987061673E-04  -2.81986907370116E-15
      2.00000000000000E-01
      5.00000000000000E-01   5.00000000000000E-01   0.00000000000000E+00   0.00000000000000E+00   6.01758434865810E-37
     -6.01758434865810E-37   0.00000000000000E+00   4.50468906059577E-16   0.00000000000000E+00   0.00000000000000E+00
      0.00000000000000E+00   0.00000000000000E+00   3.44517358897884E-13  -7.46882544570080E-16   3.43770476353314E-13
      6.66961109586022E-15  -1.00000000000000E+00  -1.00000000000000E+00   0.00000000000000E+00   0.00000000000000E+00
     -1.25103550201811E-21  -5.75230226038462E-04  -5.75230226038462E-04  -4.31676423581780E-15   0.00000000000000E+00
      0.00000000000000E+00   0.00000000000000E+00   0.00000000000000E+00   8.10148921556497E-23   5.75230225694693E-04
      5.75230225694693E-04  -2.80331576610197E-15
      2.45921557139128E-01
      3.85196107152179E-01   3.85196107152179E-01   0.00000000000000E+00   0.00000000000000E+00  -7.59401024894977E-37
      7.59401024894977E-37   0.00000000000000E+00   4.01476663107952E-16   0.00000000000000E+00   0.00000000000000E+00
      0.00000000000000E+00   0.00000000000000E+00   3.44606354701505E-13   1.22612030158359E-16   3.44728966731664E-13
      6.67016008704693E-15  -1.00000000000000E+00  -1.00000000000000E+00   0.00000000000000E+00   0.00000000000000E+00
     -1.24924873674305E-21  -5.82265505923319E-04  -5.82265505923319E-04  -4.28935964529430E-15   0.00000000000000E+00
      0.00000000000000E+00   0.00000000000000E+00   0.00000000000000E+00   8.20207395195108E-23   5.82265505578591E-04
      5.82265505578591E-04  -2.78227710486060E-15
      3.00000000000000E-01
      2.50000000000000E-01   2.50000000000000E-01   0.00000000000000E+00   0.00000000000000E+00  -3.09222595864859E-35
      3.09222595864859E-35   0.00000000000000E+00   3.43847326030014E-16   0.00000000000000E+00   0.00000000000000E+00
      0.00000000000000E+00   0.00000000000000E+00   3.44705380542419E-13   1.63434509571707E-17   3.44721723993376E-13
      6.67080494661336E-15  -1.00000000000000E+00  -1.00000000000000E+00   0.00000000000000E+00   0.00000000000000E+00
     -1.23974303529057E-21  -5.90513794157856E-04  -5.90513794157856E-04  -4.25711721753333E-15   0.00000000000000E+00
      0.00000000000000E+00   0.00000000000000E+00   0.00000000000000E+00   8.31715937358224E-23   5.90513793813135E-04
      5.90513793813135E-04  -2.75753505511003E-15
      3.58779593138084E-01
      1.03051017154789E-01   1.03051017154789E-01   0.00000000000000E+00   0.00000000000000E+00  -2.38328335793280E-34
      2.38328335793280E-34   0.00000000000000E+00   2.81299360074770E-16   0.00000000000000E+00   0.00000000000000E+00
      0.00000000000000E+00   0.00000000000000E+00   3.44806190875402E-13  -1.17632816696817E-15   3.43629862708434E-13
      6.67150238913583E-15  -1.00000000000000E+00  -1.00000000000000E+00   0.00000000000000E+00   0.00000000000000E+00
     -1.23055939796308E-21  -5.99421168924206E-04  -5.99421168924206E-04  -4.22211812953131E-15   0.00000000000000E+00
      0.00000000000000E+00   0.00000000000000E+00   0.00000000000000E+00   8.43980631831523E-23   5.99421168580578E-04
      5.99421168580578E-04  -2.73068361967930E-15
      4.00000000000000E-01
      0.00000000000000E+00   0.00000000000000E+00   0.00000000000000E+00   0.00000000000000E+00  -7.38959203391247E-35
      7.38959203391247E-35   0.00000000000000E+00   2.37500104998527E-16   0.00000000000000E+00   0.00000000000000E+00
      0.00000000000000E+00   0.00000000000000E+00   3.44873074343804E-13  -1.57939572247987E-15   3.43293678621324E-13
      6.67198911896804E-15  -1.00000000000000E+00  -1.00000000000000E+00   0.00000000000000E+00   0.00000000000000E+00
     -1.25411189268499E-21  -6.05621520490078E-04  -6.05621520490078E-04  -4.19760969775848E-15   0.00000000000000E+00
      0.00000000000000E+00   0.00000000000000E+00   0.00000000000000E+00   8.52886448452123E-23   6.05621520146783E-04
      6.05621520146783E-04  -2.71187952620809E-15
      4.75237879216748E-01
     -1.88094698041870E-01  -1.88094698041870E-01   0.00000000000000E+00   0.00000000000000E+00   2.40497760675539E-37
     -2.40497760675539E-37   0.00000000000000E+00   1.57710346015183E-16   0.00000000000000E+00   0.00000000000000E+00
      0.00000000000000E+00   0.00000000000000E+00   3.44988690014353E-13   9.39025241691962E-19   3.44989629039594E-13
      6.67287447936796E-15  -1.00000000000000E+00  -1.00000000000000E+00   0.00000000000000E+00   0.00000000000000E+00
     -1.25819808373311E-21  -6.16866816873651E-04  -6.16866816873651E-04  -4.15295841851708E-15   0.00000000000000E+00
      0.00000000000000E+00   0.00000000000000E+00   0.00000000000000E+00   8.68805669815758E-23   6.16866816528662E-04
      6.16866816528662E-04  -2.67762640686606E-15
      5.00000000000000E-01
     -2.50000000000000E-01  -2.50000000000000E-01   0.00000000000000E+00   0.00000000000000E+00  -3.82479953827271E-35
      3.82479953827271E-35   0.00000000000000E+00   1.31497956470550E-16   0.00000000000000E+00   0.00000000000000E+00
      0.00000000000000E+00   0.00000000000000E+00   3.45025226885192E-13  -2.89286009185318E-16   3.44735940876007E-13
      6.67316403580181E-15  -1.00000000000000E+00  -1.00000000000000E+00   0.00000000000000E+00   0.00000000000000E+00
     -1.25866743208240E-21  -6.20533647383535E-04  -6.20533647383535E-04  -4.13829160517675E-15   0.00000000000000E+00
      0.00000000000000E+00   0.00000000000000E+00   0.00000000000000E+00   8.74147600081072E-23   6.20533647038801E-04
      6.20533647038801E-04  -2.66637038709562E-15
      5.94799727813102E-01
     -4.86999319532756E-01  -4.86999319532756E-01   0.00000000000000E+00   0.00000000000000E+00   5.52680162942846E-37
     -5.52680162942846E-37   0.00000000000000E+00   3.13957104169259E-17   0.00000000000000E+00   0.00000000000000E+00
      0.00000000000000E+00   0.00000000000000E+00   3.45161466549217E-13  -8.40329782641179E-19   3.45160626219434E-13
      6.67427034580094E-15  -1.00000000000000E+00  -1.00000000000000E+00   0.00000000000000E+00   0.00000000000000E+00
     -1.26089943152147E-21  -6.34472491651589E-04  -6.34472491651589E-04  -4.08228225453806E-15   0.00000000000000E+00
      0.00000000000000E+00   0.00000000000000E+00   0.00000000000000E+00   8.93993562600552E-23   6.34472491306429E-04
      6.34472491306429E-04  -2.62338380167981E-15
      6.00000000000000E-01
     -5.00000000000000E-01  -5.00000000000000E-01   0.00000000000000E+00   0.00000000000000E+00   5.66364102404298E-38
     -5.66364102404298E-38   0.00000000000000E+00   2.59168514001869E-17   0.00000000000000E+00   0.00000000000000E+00
      0.00000000000000E+00   0.00000000000000E+00   3.45168856488295E-13  -2.81663936006988E-18   3.45166039848935E-13
      6.67433097868630E-15  -1.00000000000000E+00  -1.00000000000000E+00   0.00000000000000E+00   0.00000000000000E+00
     -1.26101596231374E-21  -6.35232584622929E-04  -6.35232584622929E-04  -4.07921688958615E-15   0.00000000000000E+00
      0.00000000000000E+00   0.00000000000000E+00   0.00000000000000E+00   8.94504294795845E-23   6.35232584277763E-04
      6.35232584277763E-04  -2.62103094050033E-15
      7.00000000000000E-01
     -7.50000000000000E-01  -7.50000000000000E-01   0.00000000000000E+00   0.00000000000000E+00   1.91682490783095E-34
     -1.91682490783095E-34   0.00000000000000E+00  -7.91691532876575E-17   0.00000000000000E+00   0.00000000000000E+00
      0.00000000000000E+00   0.00000000000000E+00   3.45311029264986E-13  -1.77191994147799E-18   3.45309257345044E-13
      6.67549270727332E-15  -1.00000000000000E+00  -1.00000000000000E+00   0.00000000000000E+00   0.00000000000000E+00
     -1.26323799911011E-21  -6.49712669037472E-04  -6.49712669037472E-04  -4.02043658564164E-15   0.00000000000000E+00
      0.00000000000000E+00   0.00000000000000E+00   0.00000000000000E+00   9.15169705120291E-23   6.49712668692163E-04
      6.49712668692163E-04  -2.57588696834401E-15
      8.00000000000000E-01
     -1.00000000000000E+00  -1.00000000000000E+00   0.00000000000000E+00   0.00000000000000E+00   5.13950751510874E-34
     -5.13950751510874E-34   0.00000000000000E+00  -1.83696809829474E-16   0.00000000000000E+00   0.00000000000000E+00
      0.00000000000000E+00   0.00000000000000E+00   3.45456446616575E-13  -1.15423696184311E-18   3.45455292379613E-13
      6.67665073506071E-15  -1.00000000000000E+00  -1.00000000000000E+00   0.00000000000000E+00   0.00000000000000E+00
     -1.26542352073173E-21  -6.63956569286312E-04  -6.63956569286312E-04  -3.96199807369584E-15   0.00000000000000E+00
      0.00000000000000E+00   0.00000000000000E+00   0.00000000000000E+00   9.35265639703516E-23   6.63956568940857E-04
      6.63956568940857E-04  -2.53095585153541E-15
      9.00000000000000E-01
     -1.25000000000000E+00  -1.25000000000000E+00   0.00000000000000E+00   0.00000000000000E+00   1.07096985201942E-33
     -1.07096985201942E-33   0.00000000000000E+00  -2.87616886095136E-16   0.00000000000000E+00   0.00000000000000E+00
      0.00000000000000E+00   0.00000000000000E+00   3.45605590000638E-13  -8.89562990099840E-19   3.45604700437648E-13
      6.67780765968591E-15  -1.00000000000000E+00  -1.00000000000000E+00   0.00000000000000E+00   0.00000000000000E+00
     -1.26757109929030E-21  -6.77953079550732E-04  -6.77953079550732E-04  -3.90393974729618E-15   0.00000000000000E+00
      0.00000000000000E+00   0.00000000000000E+00   0.00000000000000E+00   9.55410390556126E-23   6.77953079205128E-04
      6.77953079205128E-04  -2.48625102629459E-15
      1.00000000000000E+00
     -1.50000000000000E+00  -1.50000000000000E+00   0.00000000000000E+00   0.00000000000000E+00   2.62940712422577E-33
     -2.62940712422577E-33   0.00000000000000E+00  -3.90893971341164E-16   0.00000000000000E+00   0.00000000000000E+00
      0.00000000000000E+00   0.00000000000000E+00   3.45754511479544E-13  -7.19855886409237E-19   3.45753791623658E-13
      6.67896583349962E-15  -1.00000000000000E+00  -1.00000000000000E+00   0.00000000000000E+00   0.00000000000000E+00
     -1.26967671630859E-21  -6.91685647786503E-04  -6.91685647786503E-04  -3.84629307347606E-15   0.00000000000000E+00
      0.00000000000000E+00   0.00000000000000E+00   0.00000000000000E+00   9.74520190725115E-23   6.91685647440751E-04
      6.91685647440751E-04  -2.44177878868239E-15
}
