DF-ISE text

Info {
  version   = 1.0
  type      = xyplot
  datasets  = [
    "time"
    "gate OuterVoltage" "gate InnerVoltage" "gate QuasiFermiPotential" "gate DisplacementCurrent" "gate eCurrent"
    "gate hCurrent" "gate TotalCurrent" "gate Charge" "substrate OuterVoltage" "substrate InnerVoltage"
    "substrate QuasiFermiPotential" "substrate DisplacementCurrent" "substrate eCurrent" "substrate hCurrent" "substrate TotalCurrent"
    "substrate Charge" "drain OuterVoltage" "drain InnerVoltage" "drain QuasiFermiPotential" "drain DisplacementCurrent"
    "drain eCurrent" "drain hCurrent" "drain TotalCurrent" "drain Charge" "source OuterVoltage"
    "source InnerVoltage" "source QuasiFermiPotential" "source DisplacementCurrent" "source eCurrent" "source hCurrent"
    "source TotalCurrent" "source Charge" ]
  functions = [
    Time
    OuterVoltage InnerVoltage QuasiFermiPotential DisplacementCurrent eCurrent
    hCurrent TotalCurrent Charge OuterVoltage InnerVoltage
    QuasiFermiPotential DisplacementCurrent eCurrent hCurrent TotalCurrent
    Charge OuterVoltage InnerVoltage QuasiFermiPotential DisplacementCurrent
    eCurrent hCurrent TotalCurrent Charge OuterVoltage
    InnerVoltage QuasiFermiPotential DisplacementCurrent eCurrent hCurrent
    TotalCurrent Charge ]
}

Data {
      0.00000000000000E+00
      1.00000000000000E+00   1.00000000000000E+00   0.00000000000000E+00   0.00000000000000E+00   5.01594586305521E-37
     -5.01594586305521E-37   0.00000000000000E+00   7.79380100339163E-16   0.00000000000000E+00   0.00000000000000E+00
      0.00000000000000E+00   0.00000000000000E+00   7.04009943888722E-15   2.24018136486800E-19   7.04032345702370E-15
      2.93795824889004E-15  -1.00000000000000E+00  -1.00000000000000E+00   0.00000000000000E+00   0.00000000000000E+00
     -1.50007835445172E-21  -1.28947779840452E-04  -1.28947779840452E-04  -2.36688669091746E-15   0.00000000000000E+00
      0.00000000000000E+00   0.00000000000000E+00   0.00000000000000E+00   1.69016762000021E-23   1.28947779833412E-04
      1.28947779833412E-04  -1.35045165831174E-15
      1.00000000000000E-03
      9.97500000000000E-01   9.97500000000000E-01   0.00000000000000E+00   0.00000000000000E+00   2.56302836755592E-35
     -2.56302836755592E-35   0.00000000000000E+00   7.78096337855909E-16   0.00000000000000E+00   0.00000000000000E+00
      0.00000000000000E+00   0.00000000000000E+00   7.04030094743327E-15  -1.08448453759699E-12  -1.07744423664956E-12
      2.93802789191670E-15  -1.00000000000000E+00  -1.00000000000000E+00   0.00000000000000E+00   0.00000000000000E+00
     -1.49998233653827E-21  -1.29264655487948E-04  -1.29264655487948E-04  -2.36622712839816E-15   0.00000000000000E+00
      0.00000000000000E+00   0.00000000000000E+00   0.00000000000000E+00   1.69464213131746E-23   1.29264656565393E-04
      1.29264656565393E-04  -1.34989710137447E-15
      2.30000000000000E-03
      9.94250000000000E-01   9.94250000000000E-01   0.00000000000000E+00   0.00000000000000E+00   8.40743622607970E-37
     -8.40743622607970E-37   0.00000000000000E+00   7.76427435109070E-16   0.00000000000000E+00   0.00000000000000E+00
      0.00000000000000E+00   0.00000000000000E+00   7.04056343217864E-15  -1.35809450413681E-14  -6.54038160918950E-15
      2.93811851899618E-15  -1.00000000000000E+00  -1.00000000000000E+00   0.00000000000000E+00   0.00000000000000E+00
     -1.50018469320638E-21  -1.29677157022459E-04  -1.29677157022459E-04  -2.36536960831575E-15   0.00000000000000E+00
      0.00000000000000E+00   0.00000000000000E+00   0.00000000000000E+00   1.69973692794915E-23   1.29677157029000E-04
      1.29677157029000E-04  -1.34917634578950E-15
      3.99000000000000E-03
      9.90025000000000E-01   9.90025000000000E-01   0.00000000000000E+00   0.00000000000000E+00   1.47322590962552E-36
     -1.47322590962552E-36   0.00000000000000E+00   7.74257842333486E-16   0.00000000000000E+00   0.00000000000000E+00
      0.00000000000000E+00   0.00000000000000E+00   7.04090554163934E-15  -3.95336195123681E-14  -3.24927139707288E-14
      2.93823648882732E-15  -1.00000000000000E+00  -1.00000000000000E+00   0.00000000000000E+00   0.00000000000000E+00
     -1.50026084158857E-21  -1.30214344513486E-04  -1.30214344513486E-04  -2.36425468604505E-15   0.00000000000000E+00
      0.00000000000000E+00   0.00000000000000E+00   0.00000000000000E+00   1.70690073551063E-23   1.30214344545979E-04
      1.30214344545979E-04  -1.34823964511575E-15
      6.18700000000000E-03
      9.84532500000000E-01   9.84532500000000E-01   0.00000000000000E+00   0.00000000000000E+00   3.32635863120935E-36
     -3.32635863120935E-36   0.00000000000000E+00   7.71437340416774E-16   0.00000000000000E+00   0.00000000000000E+00
      0.00000000000000E+00   0.00000000000000E+00   7.04135175473347E-15  -1.13426124240137E-13  -1.06384772485403E-13
      2.93839011170811E-15  -1.00000000000000E+00  -1.00000000000000E+00   0.00000000000000E+00   0.00000000000000E+00
     -1.50035418559453E-21  -1.30914255309478E-04  -1.30914255309478E-04  -2.36280504597316E-15   0.00000000000000E+00
      0.00000000000000E+00   0.00000000000000E+00   0.00000000000000E+00   1.71600360910668E-23   1.30914255415863E-04
      1.30914255415863E-04  -1.34702240615172E-15
      9.04310000000000E-03
      9.77392250000000E-01   9.77392250000000E-01   0.00000000000000E+00   0.00000000000000E+00   8.71810206016495E-36
     -8.71810206016495E-36   0.00000000000000E+00   7.67770582778399E-16   0.00000000000000E+00   0.00000000000000E+00
      0.00000000000000E+00   0.00000000000000E+00   7.04193413675904E-15  -3.71638013861784E-13  -3.64596079725025E-13
      2.93859019946264E-15  -1.00000000000000E+00  -1.00000000000000E+00   0.00000000000000E+00   0.00000000000000E+00
     -1.50045790133848E-21  -1.31826572007490E-04  -1.31826572007490E-04  -2.36091998154263E-15   0.00000000000000E+00
      0.00000000000000E+00   0.00000000000000E+00   0.00000000000000E+00   1.72801722316186E-23   1.31826572372086E-04
      1.31826572372086E-04  -1.34544080069841E-15
      1.27560300000000E-02
      9.68109925000000E-01   9.68109925000000E-01   0.00000000000000E+00   0.00000000000000E+00   2.41631920298673E-35
     -2.41631920298673E-35   0.00000000000000E+00   7.63003633035053E-16   0.00000000000000E+00   0.00000000000000E+00
      0.00000000000000E+00   0.00000000000000E+00   7.04269511751897E-15  -1.15096945748506E-12  -1.14392676236754E-12
      2.93885111841149E-15  -1.00000000000000E+00  -1.00000000000000E+00   0.00000000000000E+00   0.00000000000000E+00
     -1.50054332836406E-21  -1.33016547341091E-04  -1.33016547341091E-04  -2.35846869843063E-15   0.00000000000000E+00
      0.00000000000000E+00   0.00000000000000E+00   0.00000000000000E+00   1.74374918086341E-23   1.33016548485019E-04
      1.33016548485019E-04  -1.34338605301591E-15
      1.75828390000000E-02
      9.56042902500000E-01   9.56042902500000E-01   0.00000000000000E+00   0.00000000000000E+00   5.03720791701447E-37
     -5.03720791701447E-37   0.00000000000000E+00   7.56806417312409E-16   0.00000000000000E+00   0.00000000000000E+00
      0.00000000000000E+00   0.00000000000000E+00   7.04369120330137E-15  -1.22326143067345E-19   7.04356887715830E-15
      2.93919198613324E-15  -1.00000000000000E+00  -1.00000000000000E+00   0.00000000000000E+00   0.00000000000000E+00
     -1.50091263507099E-21  -1.34569836684455E-04  -1.34569836684455E-04  -2.35528130385093E-15   0.00000000000000E+00
      0.00000000000000E+00   0.00000000000000E+00   0.00000000000000E+00   1.76399255257705E-23   1.34569836677411E-04
      1.34569836677411E-04  -1.34071709959470E-15
      2.37611545200000E-02
      9.40597113700000E-01   9.40597113700000E-01   0.00000000000000E+00   0.00000000000000E+00   5.09206428446764E-37
     -5.09206428446764E-37   0.00000000000000E+00   7.48873695381604E-16   0.00000000000000E+00   0.00000000000000E+00
      0.00000000000000E+00   0.00000000000000E+00   7.04497643388297E-15   3.76202507502625E-19   7.04535263639047E-15
      2.93963067089604E-15  -1.00000000000000E+00  -1.00000000000000E+00   0.00000000000000E+00   0.00000000000000E+00
     -1.50120932174210E-21  -1.36569220942390E-04  -1.36569220942390E-04  -2.35119988754740E-15   0.00000000000000E+00
      0.00000000000000E+00   0.00000000000000E+00   0.00000000000000E+00   1.79022802734048E-23   1.36569220935344E-04
      1.36569220935344E-04  -1.33730447873026E-15
      3.16693983856000E-02
      9.20826504036000E-01   9.20826504036000E-01   0.00000000000000E+00   0.00000000000000E+00   5.06438099475235E-37
     -5.06438099475235E-37   0.00000000000000E+00   7.38719385243406E-16   0.00000000000000E+00   0.00000000000000E+00
      0.00000000000000E+00   0.00000000000000E+00   7.04663615438109E-15   1.04684794674564E-18   7.04768300232784E-15
      2.94019555952851E-15  -1.00000000000000E+00  -1.00000000000000E+00   0.00000000000000E+00   0.00000000000000E+00
     -1.50159180867768E-21  -1.39146886743769E-04  -1.39146886743769E-04  -2.34597279842069E-15   0.00000000000000E+00
      0.00000000000000E+00   0.00000000000000E+00   0.00000000000000E+00   1.82402894884983E-23   1.39146886736722E-04
      1.39146886736722E-04  -1.33294214635122E-15
      4.17919505335680E-02
      8.95520123666080E-01   8.95520123666080E-01   0.00000000000000E+00   0.00000000000000E+00   5.09043014388982E-37
     -5.09043014388982E-37   0.00000000000000E+00   7.25721138798834E-16   0.00000000000000E+00   0.00000000000000E+00
      0.00000000000000E+00   0.00000000000000E+00   7.04878027208681E-15   8.27871420345023E-18   7.05705898629026E-15
      2.94092429703265E-15  -1.00000000000000E+00  -1.00000000000000E+00   0.00000000000000E+00   0.00000000000000E+00
     -1.50208560605424E-21  -1.42474824969483E-04  -1.42474824969483E-04  -2.33927767406291E-15   0.00000000000000E+00
      0.00000000000000E+00   0.00000000000000E+00   0.00000000000000E+00   1.86763983930296E-23   1.42474824962427E-04
      1.42474824962427E-04  -1.32736776176858E-15
      5.47488172829670E-02
      8.63127956792582E-01   8.63127956792582E-01   0.00000000000000E+00   0.00000000000000E+00   4.90259981586224E-37
     -4.90259981586224E-37   0.00000000000000E+00   7.09082366041153E-16   0.00000000000000E+00   0.00000000000000E+00
      0.00000000000000E+00   0.00000000000000E+00   7.05154634842155E-15   4.94443054524437E-17   7.10099065387399E-15
      2.94186589786003E-15  -1.00000000000000E+00  -1.00000000000000E+00   0.00000000000000E+00   0.00000000000000E+00
     -1.50272448179746E-21  -1.46781262329756E-04  -1.46781262329756E-04  -2.33070045158977E-15   0.00000000000000E+00
      0.00000000000000E+00   0.00000000000000E+00   0.00000000000000E+00   1.92419083899015E-23   1.46781262322655E-04
      1.46781262322655E-04  -1.32024781231141E-15
      7.13336067221978E-02
      8.21665983194505E-01   8.21665983194505E-01   0.00000000000000E+00   0.00000000000000E+00   5.00357938685458E-37
     -5.00357938685458E-37   0.00000000000000E+00   6.87782928799185E-16   0.00000000000000E+00   0.00000000000000E+00
      0.00000000000000E+00   0.00000000000000E+00   7.05509328789214E-15   3.65796966013869E-16   7.42089025390601E-15
      2.94308643272833E-15  -1.00000000000000E+00  -1.00000000000000E+00   0.00000000000000E+00   0.00000000000000E+00
     -1.50355198563266E-21  -1.52364543206966E-04  -1.52364543206966E-04  -2.31971075984565E-15   0.00000000000000E+00
      0.00000000000000E+00   0.00000000000000E+00   0.00000000000000E+00   1.99749378649004E-23   1.52364543199545E-04
      1.52364543199545E-04  -1.31115860168186E-15
      9.25621372044132E-02
      7.68594656988967E-01   7.68594656988967E-01   0.00000000000000E+00   0.00000000000000E+00   4.99054295700688E-37
     -4.99054295700688E-37   0.00000000000000E+00   6.60517511606767E-16   0.00000000000000E+00   0.00000000000000E+00
      0.00000000000000E+00   0.00000000000000E+00   7.05958024202302E-15   2.35363796372892E-15   9.41321820575194E-15
      2.94467176570511E-15  -1.00000000000000E+00  -1.00000000000000E+00   0.00000000000000E+00   0.00000000000000E+00
     -1.50462191154574E-21  -1.59625298235929E-04  -1.59625298235929E-04  -2.30562620430102E-15   0.00000000000000E+00
      0.00000000000000E+00   0.00000000000000E+00   0.00000000000000E+00   2.09281729755696E-23   1.59625298226516E-04
      1.59625298226516E-04  -1.29956307301086E-15
      1.00000000000000E-01
      7.50000000000000E-01   7.50000000000000E-01   0.00000000000000E+00   0.00000000000000E+00   4.92682081944735E-37
     -4.92682081944735E-37   0.00000000000000E+00   6.50964106164841E-16   0.00000000000000E+00   0.00000000000000E+00
      0.00000000000000E+00   0.00000000000000E+00   7.06112296758885E-15   1.06773449977641E-17   7.07180031258662E-15
      2.94523293535953E-15  -1.00000000000000E+00  -1.00000000000000E+00   0.00000000000000E+00   0.00000000000000E+00
     -1.50501192431031E-21  -1.62198274755814E-04  -1.62198274755814E-04  -2.30068680251956E-15   0.00000000000000E+00
      0.00000000000000E+00   0.00000000000000E+00   0.00000000000000E+00   2.12657879222067E-23   1.62198274748742E-04
      1.62198274748742E-04  -1.29551023900481E-15
      1.27172519017236E-01
      6.82068702456911E-01   6.82068702456911E-01   0.00000000000000E+00   0.00000000000000E+00   5.02400012949224E-37
     -5.02400012949224E-37   0.00000000000000E+00   6.16061072466445E-16   0.00000000000000E+00   0.00000000000000E+00
      0.00000000000000E+00   0.00000000000000E+00   7.06655922091803E-15   4.53855706289302E-15   1.16051162838110E-14
      2.94731143719182E-15  -1.00000000000000E+00  -1.00000000000000E+00   0.00000000000000E+00   0.00000000000000E+00
     -1.50640901363841E-21  -1.71717221276094E-04  -1.71717221276094E-04  -2.28262578704863E-15   0.00000000000000E+00
      0.00000000000000E+00   0.00000000000000E+00   0.00000000000000E+00   2.25157022454244E-23   1.71717221264489E-04
      1.71717221264489E-04  -1.28074672260963E-15
      1.61953343359297E-01
      5.95116641601756E-01   5.95116641601756E-01   0.00000000000000E+00   0.00000000000000E+00  -1.65773763359211E-37
      1.65773763359211E-37   0.00000000000000E+00   5.71383154373804E-16   0.00000000000000E+00   0.00000000000000E+00
      0.00000000000000E+00   0.00000000000000E+00   7.07296628153488E-15   9.35648414863635E-14   1.00637807767898E-13
      2.95003150904864E-15  -1.00000000000000E+00  -1.00000000000000E+00   0.00000000000000E+00   0.00000000000000E+00
     -1.50792286722483E-21  -1.84161852488907E-04  -1.84161852488907E-04  -2.25947133480951E-15   0.00000000000000E+00
      0.00000000000000E+00   0.00000000000000E+00   0.00000000000000E+00   2.41491100579763E-23   1.84161852388270E-04
      1.84161852388270E-04  -1.26194332861294E-15
      2.00000000000000E-01
      5.00000000000000E-01   5.00000000000000E-01   0.00000000000000E+00   0.00000000000000E+00   4.88885804612126E-37
     -4.88885804612126E-37   0.00000000000000E+00   5.22511712373477E-16   0.00000000000000E+00   0.00000000000000E+00
      0.00000000000000E+00   0.00000000000000E+00   7.07926126175781E-15   4.60003713216930E-19   7.07972126547102E-15
      2.95307528156882E-15  -1.00000000000000E+00  -1.00000000000000E+00   0.00000000000000E+00   0.00000000000000E+00
     -1.51033616285653E-21  -1.98089930128179E-04  -1.98089930128179E-04  -2.23409831289123E-15   0.00000000000000E+00
      0.00000000000000E+00   0.00000000000000E+00   0.00000000000000E+00   2.59783529617376E-23   1.98089930121099E-04
      1.98089930121099E-04  -1.24148868105107E-15
      2.44519455157839E-01
      3.88701362105403E-01   3.88701362105403E-01   0.00000000000000E+00   0.00000000000000E+00   5.12062424428314E-37
     -5.12062424428314E-37   0.00000000000000E+00   4.65331305107612E-16   0.00000000000000E+00   0.00000000000000E+00
      0.00000000000000E+00   0.00000000000000E+00   7.08588707106974E-15   4.72080538801701E-19   7.08635915160854E-15
      2.95672584366363E-15  -1.00000000000000E+00  -1.00000000000000E+00   0.00000000000000E+00   0.00000000000000E+00
     -1.51280716382804E-21  -2.14750320390672E-04  -2.14750320390672E-04  -2.20436098081419E-15   0.00000000000000E+00
      0.00000000000000E+00   0.00000000000000E+00   0.00000000000000E+00   2.81661304977447E-23   2.14750320383585E-04
      2.14750320383585E-04  -1.21769616795704E-15
      3.00000000000000E-01
      2.50000000000000E-01   2.50000000000000E-01   0.00000000000000E+00   0.00000000000000E+00   4.93823854984102E-37
     -4.93823854984102E-37   0.00000000000000E+00   3.94090675977039E-16   0.00000000000000E+00   0.00000000000000E+00
      0.00000000000000E+00   0.00000000000000E+00   7.09344965039640E-15  -3.96329340408483E-19   7.09305332105599E-15
      2.96139680284047E-15  -1.00000000000000E+00  -1.00000000000000E+00   0.00000000000000E+00   0.00000000000000E+00
     -1.51595758209961E-21  -2.35995477748242E-04  -2.35995477748242E-04  -2.16724121654325E-15   0.00000000000000E+00
      0.00000000000000E+00   0.00000000000000E+00   0.00000000000000E+00   3.09579463283785E-23   2.35995477741149E-04
      2.35995477741149E-04  -1.18824626227425E-15
      3.56094513498877E-01
      1.09763716252807E-01   1.09763716252807E-01   0.00000000000000E+00   0.00000000000000E+00   5.21229547672723E-37
     -5.21229547672723E-37   0.00000000000000E+00   3.22092985823400E-16   0.00000000000000E+00   0.00000000000000E+00
      0.00000000000000E+00   0.00000000000000E+00   7.10063505839545E-15   3.95333661062341E-19   7.10103039205651E-15
      2.96624621845969E-15  -1.00000000000000E+00  -1.00000000000000E+00   0.00000000000000E+00   0.00000000000000E+00
     -1.51921047882002E-21  -2.57932030302920E-04  -2.57932030302920E-04  -2.12965993708680E-15   0.00000000000000E+00
      0.00000000000000E+00   0.00000000000000E+00   0.00000000000000E+00   3.38408550301793E-23   2.57932030295820E-04
      2.57932030295820E-04  -1.15867926719629E-15
      4.00000000000000E-01
      0.00000000000000E+00   0.00000000000000E+00   0.00000000000000E+00   0.00000000000000E+00   4.93753962146999E-37
     -4.93753962146999E-37   0.00000000000000E+00   2.65771098496872E-16   0.00000000000000E+00   0.00000000000000E+00
      0.00000000000000E+00   0.00000000000000E+00   7.10610222572222E-15   2.09219203798520E-20   7.10612314764260E-15
      2.97012483614682E-15  -1.00000000000000E+00  -1.00000000000000E+00   0.00000000000000E+00   0.00000000000000E+00
     -1.52179622406970E-21  -2.75370982196161E-04  -2.75370982196161E-04  -2.10022280960748E-15   0.00000000000000E+00
      0.00000000000000E+00   0.00000000000000E+00   0.00000000000000E+00   3.61336243490925E-23   2.75370982189056E-04
      2.75370982189056E-04  -1.13567312503621E-15
      4.70679087008585E-01
     -1.76697717521463E-01  -1.76697717521463E-01   0.00000000000000E+00   0.00000000000000E+00   5.04825516128233E-37
     -5.04825516128233E-37   0.00000000000000E+00   1.75181672809689E-16   0.00000000000000E+00   0.00000000000000E+00
      0.00000000000000E+00   0.00000000000000E+00   7.11510149270587E-15  -3.70990030461830E-16   6.74411146224404E-15
      2.97650192005207E-15  -1.00000000000000E+00  -1.00000000000000E+00   0.00000000000000E+00   0.00000000000000E+00
     -1.52592493001101E-21  -3.03854553597225E-04  -3.03854553597225E-04  -2.05281229556820E-15   0.00000000000000E+00
      0.00000000000000E+00   0.00000000000000E+00   0.00000000000000E+00   3.98790861294516E-23   3.03854553590480E-04
      3.03854553590480E-04  -1.09887129729357E-15
      5.00000000000000E-01
     -2.50000000000000E-01  -2.50000000000000E-01   0.00000000000000E+00   0.00000000000000E+00   5.12329922539087E-37
     -5.12329922539087E-37   0.00000000000000E+00   1.37634105671109E-16   0.00000000000000E+00   0.00000000000000E+00
      0.00000000000000E+00   0.00000000000000E+00   7.11910922211104E-15   4.41242961591150E-19   7.11955046507263E-15
      2.97919521092460E-15  -1.00000000000000E+00  -1.00000000000000E+00   0.00000000000000E+00   0.00000000000000E+00
     -1.52778769978243E-21  -3.15786355403421E-04  -3.15786355403421E-04  -2.03314558554047E-15   0.00000000000000E+00
      0.00000000000000E+00   0.00000000000000E+00   0.00000000000000E+00   4.14484574544606E-23   3.15786355396302E-04
      3.15786355396302E-04  -1.08368373105524E-15
      5.89055649630817E-01
     -4.72639124077043E-01  -4.72639124077043E-01   0.00000000000000E+00   0.00000000000000E+00   6.15769163195331E-37
     -6.15769163195331E-37   0.00000000000000E+00   2.37373878392854E-17   0.00000000000000E+00   0.00000000000000E+00
      0.00000000000000E+00   0.00000000000000E+00   7.13182428973705E-15  -5.54817636474520E-17   7.07634252608959E-15
      2.98751936322399E-15  -1.00000000000000E+00  -1.00000000000000E+00   0.00000000000000E+00   0.00000000000000E+00
     -1.53318103997585E-21  -3.52318080173693E-04  -3.52318080173693E-04  -1.97343528663296E-15   0.00000000000000E+00
      0.00000000000000E+00   0.00000000000000E+00   0.00000000000000E+00   4.62557318394565E-23   3.52318080166616E-04
      3.52318080166616E-04  -1.03782146443033E-15
      6.00000000000000E-01
     -5.00000000000000E-01  -5.00000000000000E-01   0.00000000000000E+00   0.00000000000000E+00  -7.14192716467853E-36
      7.14192716467853E-36   0.00000000000000E+00   9.75768639144936E-18   0.00000000000000E+00   0.00000000000000E+00
      0.00000000000000E+00   0.00000000000000E+00   7.13328016808413E-15   6.02713537364347E-16   7.73599370544848E-15
      2.98855676882823E-15  -1.00000000000000E+00  -1.00000000000000E+00   0.00000000000000E+00   0.00000000000000E+00
     -1.53373731465244E-21  -3.56831724700330E-04  -3.56831724700330E-04  -1.96610269283210E-15   0.00000000000000E+00
      0.00000000000000E+00   0.00000000000000E+00   0.00000000000000E+00   4.68509815366607E-23   3.56831724692594E-04
      3.56831724692594E-04  -1.03221176238758E-15
      6.50000000000000E-01
     -6.25000000000000E-01  -6.25000000000000E-01   0.00000000000000E+00   0.00000000000000E+00   8.59126419220115E-37
     -8.59126419220115E-37   0.00000000000000E+00  -5.40550745034888E-17   0.00000000000000E+00   0.00000000000000E+00
      0.00000000000000E+00   0.00000000000000E+00   7.13915231281191E-15  -8.16480607512635E-18   7.13098750673679E-15
      2.99333601101235E-15  -1.00000000000000E+00  -1.00000000000000E+00   0.00000000000000E+00   0.00000000000000E+00
     -1.53669793557369E-21  -3.77489701171910E-04  -3.77489701171910E-04  -1.93262736029996E-15   0.00000000000000E+00
      0.00000000000000E+00   0.00000000000000E+00   0.00000000000000E+00   4.95704487613014E-23   3.77489701164778E-04
      3.77489701164778E-04  -1.00665357620889E-15
      7.00000000000000E-01
     -7.50000000000000E-01  -7.50000000000000E-01   0.00000000000000E+00   0.00000000000000E+00   7.78296851311627E-37
     -7.78296851311627E-37   0.00000000000000E+00  -1.17769920352638E-16   0.00000000000000E+00   0.00000000000000E+00
      0.00000000000000E+00   0.00000000000000E+00   7.14361980456014E-15   4.60369622510660E-20   7.14366584152239E-15
      2.99817338546272E-15  -1.00000000000000E+00  -1.00000000000000E+00   0.00000000000000E+00   0.00000000000000E+00
     -1.53997612370618E-21  -3.98187500434404E-04  -3.98187500434404E-04  -1.89919644593936E-15   0.00000000000000E+00
      0.00000000000000E+00   0.00000000000000E+00   0.00000000000000E+00   5.22963017522200E-23   3.98187500427260E-04
      3.98187500427260E-04  -9.81207019170730E-16
      7.63000000000000E-01
     -9.07500000000000E-01  -9.07500000000000E-01   0.00000000000000E+00   0.00000000000000E+00   5.60403993094895E-37
     -5.60403993094895E-37   0.00000000000000E+00  -1.97895245928196E-16   0.00000000000000E+00   0.00000000000000E+00
      0.00000000000000E+00   0.00000000000000E+00   7.14820543694490E-15  -5.07413713821128E-18   7.14313129980669E-15
      3.00434547978645E-15  -1.00000000000000E+00  -1.00000000000000E+00   0.00000000000000E+00   0.00000000000000E+00
     -1.54382730755394E-21  -4.24264463228769E-04  -4.24264463228769E-04  -1.85715379037027E-15   0.00000000000000E+00
      0.00000000000000E+00   0.00000000000000E+00   0.00000000000000E+00   5.57321160211280E-23   4.24264463221626E-04
      4.24264463221626E-04  -9.49296443487996E-16
      8.00000000000000E-01
     -1.00000000000000E+00  -1.00000000000000E+00   0.00000000000000E+00   0.00000000000000E+00   5.06334731799672E-37
     -5.06334731799672E-37   0.00000000000000E+00  -2.44863636664622E-16   0.00000000000000E+00   0.00000000000000E+00
      0.00000000000000E+00   0.00000000000000E+00   7.15095573266581E-15  -2.66261757233887E-20   7.15092910649009E-15
      3.00800800643368E-15  -1.00000000000000E+00  -1.00000000000000E+00   0.00000000000000E+00   0.00000000000000E+00
     -1.54613055254567E-21  -4.39558408678991E-04  -4.39558408678991E-04  -1.83251265048311E-15   0.00000000000000E+00
      0.00000000000000E+00   0.00000000000000E+00   0.00000000000000E+00   5.77473844041704E-23   4.39558408671841E-04
      4.39558408671841E-04  -9.30631719285957E-16
      8.79380000000000E-01
     -1.19845000000000E+00  -1.19845000000000E+00   0.00000000000000E+00   0.00000000000000E+00   3.78860430864828E-36
     -3.78860430864828E-36   0.00000000000000E+00  -3.45384764476994E-16   0.00000000000000E+00   0.00000000000000E+00
      0.00000000000000E+00   0.00000000000000E+00   7.15809748653805E-15  -6.87710025564438E-17   7.08932648398161E-15
      3.01595302318026E-15  -1.00000000000000E+00  -1.00000000000000E+00   0.00000000000000E+00   0.00000000000000E+00
     -1.55097097976927E-21  -4.72239407812291E-04  -4.72239407812291E-04  -1.77979631367248E-15   0.00000000000000E+00
      0.00000000000000E+00   0.00000000000000E+00   0.00000000000000E+00   6.20562570997098E-23   4.72239407805202E-04
      4.72239407805202E-04  -8.90771945030780E-16
      9.00000000000000E-01
     -1.25000000000000E+00  -1.25000000000000E+00   0.00000000000000E+00   0.00000000000000E+00   5.03596238156152E-37
     -5.03596238156152E-37   0.00000000000000E+00  -3.71437760011561E-16   0.00000000000000E+00   0.00000000000000E+00
      0.00000000000000E+00   0.00000000000000E+00   7.16032824339442E-15   5.55729637321732E-19   7.16088397303174E-15
      3.01803539868925E-15  -1.00000000000000E+00  -1.00000000000000E+00   0.00000000000000E+00   0.00000000000000E+00
     -1.55222433209599E-21  -4.80689134097391E-04  -4.80689134097391E-04  -1.76613981928041E-15   0.00000000000000E+00
      0.00000000000000E+00   0.00000000000000E+00   0.00000000000000E+00   6.31709445721114E-23   4.80689134090230E-04
      4.80689134090230E-04  -8.80457819397277E-16
      1.00000000000000E+00
     -1.50000000000000E+00  -1.50000000000000E+00   0.00000000000000E+00   0.00000000000000E+00   5.13773081869009E-37
     -5.13773081869009E-37   0.00000000000000E+00  -4.97411452417745E-16   0.00000000000000E+00   0.00000000000000E+00
      0.00000000000000E+00   0.00000000000000E+00   7.17127522187901E-15  -5.75426715215279E-17   7.11373255035748E-15
      3.02823598918409E-15  -1.00000000000000E+00  -1.00000000000000E+00   0.00000000000000E+00   0.00000000000000E+00
     -1.55814095293529E-21  -5.21340762942633E-04  -5.21340762942633E-04  -1.70016092170890E-15   0.00000000000000E+00
      0.00000000000000E+00   0.00000000000000E+00   0.00000000000000E+00   6.85335511996856E-23   5.21340762935519E-04
      5.21340762935519E-04  -8.30663615057434E-16
}
