DF-ISE text

Info {
  version   = 1.0
  type      = xyplot
  datasets  = [
    "time"
    "gate OuterVoltage" "gate InnerVoltage" "gate QuasiFermiPotential" "gate DisplacementCurrent" "gate eCurrent"
    "gate hCurrent" "gate TotalCurrent" "gate Charge" "substrate OuterVoltage" "substrate InnerVoltage"
    "substrate QuasiFermiPotential" "substrate DisplacementCurrent" "substrate eCurrent" "substrate hCurrent" "substrate TotalCurrent"
    "substrate Charge" "drain OuterVoltage" "drain InnerVoltage" "drain QuasiFermiPotential" "drain DisplacementCurrent"
    "drain eCurrent" "drain hCurrent" "drain TotalCurrent" "drain Charge" "source OuterVoltage"
    "source InnerVoltage" "source QuasiFermiPotential" "source DisplacementCurrent" "source eCurrent" "source hCurrent"
    "source TotalCurrent" "source Charge" ]
  functions = [
    Time
    OuterVoltage InnerVoltage QuasiFermiPotential DisplacementCurrent eCurrent
    hCurrent TotalCurrent Charge OuterVoltage InnerVoltage
    QuasiFermiPotential DisplacementCurrent eCurrent hCurrent TotalCurrent
    Charge OuterVoltage InnerVoltage QuasiFermiPotential DisplacementCurrent
    eCurrent hCurrent TotalCurrent Charge OuterVoltage
    InnerVoltage QuasiFermiPotential DisplacementCurrent eCurrent hCurrent
    TotalCurrent Charge ]
}

Data {
      0.00000000000000E+00
      1.00000000000000E+00   1.00000000000000E+00   0.00000000000000E+00   0.00000000000000E+00   1.28439088402650E-36
     -1.28439088402650E-36   0.00000000000000E+00   1.14710446127523E-15   0.00000000000000E+00   0.00000000000000E+00
      0.00000000000000E+00   0.00000000000000E+00   7.37408222396610E-15   2.45796771660573E-19   7.37432802073776E-15
      2.31475948777871E-15  -1.00000000000000E+00  -1.00000000000000E+00   0.00000000000000E+00   0.00000000000000E+00
     -1.39598082110300E-21  -1.29846851921614E-14  -1.29846865881422E-14  -2.16081258665289E-15   0.00000000000000E+00
      0.00000000000000E+00   0.00000000000000E+00   0.00000000000000E+00   4.05376796805280E-28   5.61035856740403E-15
      5.61035856740444E-15  -1.30105136240104E-15
      1.00000000000000E-03
      9.97500000000000E-01   9.97500000000000E-01   0.00000000000000E+00   0.00000000000000E+00   1.25809414391348E-36
     -1.25809414391348E-36   0.00000000000000E+00   1.14520271661982E-15   0.00000000000000E+00   0.00000000000000E+00
      0.00000000000000E+00   0.00000000000000E+00   7.37112325938098E-15  -6.97827723662569E-20   7.37105347660861E-15
      2.31487766806451E-15  -1.00000000000000E+00  -1.00000000000000E+00   0.00000000000000E+00   0.00000000000000E+00
     -1.39598081993091E-21  -1.32315340613072E-14  -1.32315354572881E-14  -2.15991981658586E-15   0.00000000000000E+00
      0.00000000000000E+00   0.00000000000000E+00   0.00000000000000E+00   3.20781352525738E-29   5.86048198067937E-15
      5.86048198067941E-15  -1.30016056809848E-15
      2.28000000000000E-03
      9.94300000000000E-01   9.94300000000000E-01   0.00000000000000E+00   0.00000000000000E+00   2.03534722275192E-36
     -2.03534722275192E-36   0.00000000000000E+00   1.14276847187037E-15   0.00000000000000E+00   0.00000000000000E+00
      0.00000000000000E+00   0.00000000000000E+00   7.36732000782141E-15  -7.51151203506542E-15  -1.44192027244014E-16
      2.31502893694600E-15  -1.00000000000000E+00  -1.00000000000000E+00   0.00000000000000E+00   0.00000000000000E+00
     -1.39597908762908E-21  -1.36305839750573E-14  -1.36305853710364E-14  -2.15877702347672E-15   0.00000000000000E+00
      0.00000000000000E+00   0.00000000000000E+00   0.00000000000000E+00   1.05700411760125E-27   1.37747773982793E-14
      1.37747773982804E-14  -1.29902038533964E-15
      3.94400000000000E-03
      9.90140000000000E-01   9.90140000000000E-01   0.00000000000000E+00   0.00000000000000E+00   1.26993802563818E-36
     -1.26993802563818E-36   0.00000000000000E+00   1.13960393402225E-15   0.00000000000000E+00   0.00000000000000E+00
      0.00000000000000E+00   0.00000000000000E+00   7.36235071153137E-15   1.98203888434527E-20   7.36237053192021E-15
      2.31522558518678E-15  -1.00000000000000E+00  -1.00000000000000E+00   0.00000000000000E+00   0.00000000000000E+00
     -1.39598081778952E-21  -1.40266725613966E-14  -1.40266739573774E-14  -2.15729131307753E-15   0.00000000000000E+00
      0.00000000000000E+00   0.00000000000000E+00   0.00000000000000E+00   3.41971900403805E-28   6.66430342545686E-15
      6.66430342545720E-15  -1.29753820613150E-15
      6.07392000000000E-03
      9.84815200000000E-01   9.84815200000000E-01   0.00000000000000E+00   0.00000000000000E+00   1.25867608167541E-36
     -1.25867608167541E-36   0.00000000000000E+00   1.13555329266935E-15   0.00000000000000E+00   0.00000000000000E+00
      0.00000000000000E+00   0.00000000000000E+00   7.35594513518302E-15  -1.65131576991170E-20   7.35592862202532E-15
      2.31547729672658E-15  -1.00000000000000E+00  -1.00000000000000E+00   0.00000000000000E+00   0.00000000000000E+00
     -1.39598081849084E-21  -1.46704762811500E-14  -1.46704776771308E-14  -2.15538947338656E-15   0.00000000000000E+00
      0.00000000000000E+00   0.00000000000000E+00   0.00000000000000E+00   2.49615657221313E-28   7.31454905510526E-15
      7.31454905510551E-15  -1.29564111600938E-15
      8.80021760000000E-03
      9.77999456000000E-01   9.77999456000000E-01   0.00000000000000E+00   0.00000000000000E+00   1.28911880728642E-36
     -1.28911880728642E-36   0.00000000000000E+00   1.13036841688776E-15   0.00000000000000E+00   0.00000000000000E+00
      0.00000000000000E+00   0.00000000000000E+00   7.34766550940036E-15   3.70266253228602E-20   7.34770253602569E-15
      2.31579949874030E-15  -1.00000000000000E+00  -1.00000000000000E+00   0.00000000000000E+00   0.00000000000000E+00
     -1.39598081690834E-21  -1.55891847393385E-14  -1.55891861353193E-14  -2.15295490605953E-15   0.00000000000000E+00
      0.00000000000000E+00   0.00000000000000E+00   0.00000000000000E+00  -6.10524202477619E-28   8.24148359929420E-15
      8.24148359929359E-15  -1.29321300956855E-15
      1.22898785280000E-02
      9.69275303680000E-01   9.69275303680000E-01   0.00000000000000E+00   0.00000000000000E+00   1.26272443712290E-36
     -1.26272443712290E-36   0.00000000000000E+00   1.12373168411705E-15   0.00000000000000E+00   0.00000000000000E+00
      0.00000000000000E+00   0.00000000000000E+00   7.33691500681405E-15   5.76250048397780E-20   7.33697263181889E-15
      2.31621195318028E-15  -1.00000000000000E+00  -1.00000000000000E+00   0.00000000000000E+00   0.00000000000000E+00
     -1.39598081245053E-21  -1.69434178814710E-14  -1.69434192774518E-14  -2.14983831395618E-15   0.00000000000000E+00
      0.00000000000000E+00   0.00000000000000E+00   0.00000000000000E+00  -1.29043117612088E-28   9.60644664563306E-15
      9.60644664563293E-15  -1.29010532334115E-15
      1.67566445158400E-02
      9.58108388710400E-01   9.58108388710400E-01   0.00000000000000E+00   0.00000000000000E+00   1.27104576967808E-36
     -1.27104576967808E-36   0.00000000000000E+00   1.11523651195895E-15   0.00000000000000E+00   0.00000000000000E+00
      0.00000000000000E+00   0.00000000000000E+00   7.32285063523244E-15   1.19413012796017E-19   7.32297004824524E-15
      2.31673999028266E-15  -1.00000000000000E+00  -1.00000000000000E+00   0.00000000000000E+00   0.00000000000000E+00
     -1.39598081372160E-21  -1.90195968797577E-14  -1.90195982757385E-14  -2.14584851402204E-15   0.00000000000000E+00
      0.00000000000000E+00   0.00000000000000E+00   0.00000000000000E+00   2.18812650998800E-28   1.16966282274931E-14
      1.16966282274933E-14  -1.28612798821955E-15
      2.24741049802752E-02
      9.43814737549312E-01   9.43814737549312E-01   0.00000000000000E+00   0.00000000000000E+00   1.25534666275792E-36
     -1.25534666275792E-36   0.00000000000000E+00   1.10436243118448E-15   0.00000000000000E+00   0.00000000000000E+00
      0.00000000000000E+00   0.00000000000000E+00   7.30426768848999E-15   8.04044944081672E-20   7.30434809298439E-15
      2.31741611131607E-15  -1.00000000000000E+00  -1.00000000000000E+00   0.00000000000000E+00   0.00000000000000E+00
     -1.39598080689829E-21  -2.23742861129742E-14  -2.23742875089550E-14  -2.14074065905386E-15   0.00000000000000E+00
      0.00000000000000E+00   0.00000000000000E+00   0.00000000000000E+00  -1.02820489667030E-28   1.50699394159706E-14
      1.50699394159705E-14  -1.28103788344668E-15
      2.97924543747523E-02
      9.25518864063119E-01   9.25518864063119E-01   0.00000000000000E+00   0.00000000000000E+00   1.28325915070845E-36
     -1.28325915070845E-36   0.00000000000000E+00   1.09044316565238E-15   0.00000000000000E+00   0.00000000000000E+00
      0.00000000000000E+00   0.00000000000000E+00   7.27927197589291E-15   4.37574914812366E-21   7.27927635164206E-15
      2.31828209197106E-15  -1.00000000000000E+00  -1.00000000000000E+00   0.00000000000000E+00   0.00000000000000E+00
     -1.39598080492429E-21  -2.81687695182821E-14  -2.81687709142629E-14  -2.13420113233688E-15   0.00000000000000E+00
      0.00000000000000E+00   0.00000000000000E+00   0.00000000000000E+00   5.15810339618908E-28   2.08894945626202E-14
      2.08894945626207E-14  -1.27452412528656E-15
      3.91599415996829E-02
      9.02100146000793E-01   9.02100146000793E-01   0.00000000000000E+00   0.00000000000000E+00   1.28664844417916E-36
     -1.28664844417916E-36   0.00000000000000E+00   1.07262575061284E-15   0.00000000000000E+00   0.00000000000000E+00
      0.00000000000000E+00   0.00000000000000E+00   7.24464970528031E-15  -7.48354737647671E-21   7.24464222173293E-15
      2.31939178757253E-15  -1.00000000000000E+00  -1.00000000000000E+00   0.00000000000000E+00   0.00000000000000E+00
     -1.39598079863049E-21  -3.90886049637170E-14  -3.90886063596978E-14  -2.12582816793515E-15   0.00000000000000E+00
      0.00000000000000E+00   0.00000000000000E+00   0.00000000000000E+00   4.34599429509600E-28   3.18439641379642E-14
      3.18439641379647E-14  -1.26618937025023E-15
      5.09629755030955E-02
      8.72592561242261E-01   8.72592561242261E-01   0.00000000000000E+00   0.00000000000000E+00   1.26206146970245E-36
     -1.26206146970245E-36   0.00000000000000E+00   1.05017454124779E-15   0.00000000000000E+00   0.00000000000000E+00
      0.00000000000000E+00   0.00000000000000E+00   7.19604200311479E-15   1.08594595840054E-19   7.19615059771063E-15
      2.32079270485528E-15  -1.00000000000000E+00  -1.00000000000000E+00   0.00000000000000E+00   0.00000000000000E+00
     -1.39598078886911E-21  -6.16534206738026E-14  -6.16534220697834E-14  -2.11527452842185E-15   0.00000000000000E+00
      0.00000000000000E+00   0.00000000000000E+00   0.00000000000000E+00  -9.01504590771909E-30   5.44572714720727E-14
      5.44572714720727E-14  -1.25569271768121E-15
      6.58347982213954E-02
      8.35413004446512E-01   8.35413004446512E-01   0.00000000000000E+00   0.00000000000000E+00   1.26779559586710E-36
     -1.26779559586710E-36   0.00000000000000E+00   1.02188389336321E-15   0.00000000000000E+00   0.00000000000000E+00
      0.00000000000000E+00   0.00000000000000E+00   7.12868499253438E-15   5.46327383188197E-18   7.13414826636626E-15
      2.32256363591394E-15  -1.00000000000000E+00  -1.00000000000000E+00   0.00000000000000E+00   0.00000000000000E+00
     -1.39598058280937E-21  -1.15015135691904E-13  -1.15015137087885E-13  -2.10197123096403E-15   0.00000000000000E+00
      0.00000000000000E+00   0.00000000000000E+00   0.00000000000000E+00  -1.90338966614110E-28   1.07880988821518E-13
      1.07880988821518E-13  -1.24247629831312E-15
      8.48707313008192E-02
      7.87823171747952E-01   7.87823171747952E-01   0.00000000000000E+00   0.00000000000000E+00   1.28469293495273E-36
     -1.28469293495273E-36   0.00000000000000E+00   9.85668178108312E-16   0.00000000000000E+00   0.00000000000000E+00
      0.00000000000000E+00   0.00000000000000E+00   7.03964008903889E-15   6.07472451469356E-16   7.64711254050824E-15
      2.32484304403563E-15  -1.00000000000000E+00  -1.00000000000000E+00   0.00000000000000E+00   0.00000000000000E+00
     -1.39597769431401E-21  -2.68689745472137E-13  -2.68689746868114E-13  -2.08493406789090E-15   0.00000000000000E+00
      0.00000000000000E+00   0.00000000000000E+00   0.00000000000000E+00   9.48236940518019E-28   2.61042634327605E-13
      2.61042634327606E-13  -1.22557715425305E-15
      1.00000000000000E-01
      7.50000000000000E-01   7.50000000000000E-01   0.00000000000000E+00   0.00000000000000E+00   1.26343324786068E-36
     -1.26343324786068E-36   0.00000000000000E+00   9.56881706870888E-16   0.00000000000000E+00   0.00000000000000E+00
      0.00000000000000E+00   0.00000000000000E+00   6.97166121174311E-15   6.27856861740048E-17   7.03444689791711E-15
      2.32666770242483E-15  -1.00000000000000E+00  -1.00000000000000E+00   0.00000000000000E+00   0.00000000000000E+00
     -1.39597878098606E-21  -5.40089564219976E-13  -5.40089565615955E-13  -2.07138651545757E-15   0.00000000000000E+00
      0.00000000000000E+00   0.00000000000000E+00   0.00000000000000E+00  -9.30336581882771E-28   5.33055118718040E-13
      5.33055118718039E-13  -1.21216289383816E-15
      1.24365994341663E-01
      6.89085014145844E-01   6.89085014145844E-01   0.00000000000000E+00   0.00000000000000E+00   1.26671548372326E-36
     -1.26671548372326E-36   0.00000000000000E+00   9.10514140673905E-16   0.00000000000000E+00   0.00000000000000E+00
      0.00000000000000E+00   0.00000000000000E+00   6.86998189276309E-15   1.13616451577929E-19   6.87009550921466E-15
      2.32963774171895E-15  -1.00000000000000E+00  -1.00000000000000E+00   0.00000000000000E+00   0.00000000000000E+00
     -1.39598072949487E-21  -1.70421379946660E-12  -1.70421380086258E-12  -2.04955585073380E-15   0.00000000000000E+00
      0.00000000000000E+00   0.00000000000000E+00   0.00000000000000E+00   1.06622659038152E-28   1.69734370535337E-12
      1.69734370535337E-12  -1.19059603165906E-15
      1.55067147212157E-01
      6.12332131969607E-01   6.12332131969607E-01   0.00000000000000E+00   0.00000000000000E+00   1.24330316241303E-36
     -1.24330316241303E-36   0.00000000000000E+00   8.52078549504265E-16   0.00000000000000E+00   0.00000000000000E+00
      0.00000000000000E+00   0.00000000000000E+00   6.75033176141789E-15   9.93152321444632E-20   6.75043107665004E-15
      2.33345191230912E-15  -1.00000000000000E+00  -1.00000000000000E+00   0.00000000000000E+00   0.00000000000000E+00
     -1.39598036127749E-21  -7.43214193628442E-12  -7.43214193768040E-12  -2.02202961094548E-15   0.00000000000000E+00
      0.00000000000000E+00   0.00000000000000E+00   0.00000000000000E+00   4.57470754614569E-28   7.42539150660374E-12
      7.42539150660374E-12  -1.16350085086790E-15
      1.93750599828981E-01
      5.15623500427548E-01   5.15623500427548E-01   0.00000000000000E+00   0.00000000000000E+00   1.24931501066495E-36
     -1.24931501066495E-36   0.00000000000000E+00   7.78426256347535E-16   0.00000000000000E+00   0.00000000000000E+00
      0.00000000000000E+00   0.00000000000000E+00   6.60947511063945E-15  -2.63042134758503E-19   6.60921206850469E-15
      2.33841341738773E-15  -1.00000000000000E+00  -1.00000000000000E+00   0.00000000000000E+00   0.00000000000000E+00
     -1.39594818570010E-21  -4.85782923506108E-11  -4.85782923520067E-11  -1.98731911503428E-15   0.00000000000000E+00
      0.00000000000000E+00   0.00000000000000E+00   0.00000000000000E+00   9.78995413595784E-28   4.85716831399383E-11
      4.85716831399383E-11  -1.12952055870099E-15
      2.00000000000000E-01
      5.00000000000000E-01   5.00000000000000E-01   0.00000000000000E+00   0.00000000000000E+00   1.26224438304056E-36
     -1.26224438304056E-36   0.00000000000000E+00   7.66524682363441E-16   0.00000000000000E+00   0.00000000000000E+00
      0.00000000000000E+00   0.00000000000000E+00   6.58699998145111E-15   9.82593094296458E-17   6.68525929088075E-15
      2.33923530593613E-15  -1.00000000000000E+00  -1.00000000000000E+00   0.00000000000000E+00   0.00000000000000E+00
     -1.39598054899741E-21  -6.58832119625711E-11  -6.58832119639671E-11  -1.98170903031799E-15   0.00000000000000E+00
      0.00000000000000E+00   0.00000000000000E+00   0.00000000000000E+00  -1.09437151350742E-27   6.58765267046762E-11
      6.58765267046762E-11  -1.12405095798157E-15
      2.48741150297198E-01
      3.78147124257006E-01   3.78147124257006E-01   0.00000000000000E+00   0.00000000000000E+00   1.27546942630407E-36
     -1.27546942630407E-36   0.00000000000000E+00   6.73664949704695E-16   0.00000000000000E+00   0.00000000000000E+00
      0.00000000000000E+00   0.00000000000000E+00   6.35988059816451E-15  -8.55134823036373E-19   6.35902546334148E-15
      2.34589892003365E-15  -1.00000000000000E+00  -1.00000000000000E+00   0.00000000000000E+00   0.00000000000000E+00
     -1.39598067970096E-21  -7.13477496584633E-10  -7.13477496586029E-10  -1.93793481605730E-15   0.00000000000000E+00
      0.00000000000000E+00   0.00000000000000E+00   0.00000000000000E+00  -3.73152156933910E-28   7.13471137560567E-10
      7.13471137560567E-10  -1.08162905368105E-15
      3.00000000000000E-01
      2.50000000000000E-01   2.50000000000000E-01   0.00000000000000E+00   0.00000000000000E+00   1.27169864583271E-36
     -1.27169864583271E-36   0.00000000000000E+00   5.75907948269881E-16   0.00000000000000E+00   0.00000000000000E+00
      0.00000000000000E+00   0.00000000000000E+00   6.16035280168135E-15   8.26053494398724E-19   6.16117885517575E-15
      2.35356578181409E-15  -1.00000000000000E+00  -1.00000000000000E+00   0.00000000000000E+00   0.00000000000000E+00
     -1.39598129299262E-21  -8.68278631571591E-09  -8.68278631571731E-09  -1.89187622089587E-15   0.00000000000000E+00
      0.00000000000000E+00   0.00000000000000E+00   0.00000000000000E+00   1.29766724503935E-27   8.68278015453849E-09
      8.68278015453849E-09  -1.03759750918811E-15
      3.58489380356637E-01
      1.03776549108408E-01   1.03776549108408E-01   0.00000000000000E+00   0.00000000000000E+00   1.28527896677312E-36
     -1.28527896677312E-36   0.00000000000000E+00   4.64069384780511E-16   0.00000000000000E+00   0.00000000000000E+00
      0.00000000000000E+00   0.00000000000000E+00   6.03279841928543E-15   4.39736421383509E-19   6.03323815570681E-15
      2.36369241358399E-15  -1.00000000000000E+00  -1.00000000000000E+00   0.00000000000000E+00   0.00000000000000E+00
     -1.39599307767750E-21  -1.41864978183600E-07  -1.41864978183601E-07  -1.83933884049857E-15   0.00000000000000E+00
      0.00000000000000E+00   0.00000000000000E+00   0.00000000000000E+00   1.17409264480864E-26   1.41864972150363E-07
      1.41864972150363E-07  -9.88422957865941E-16
      4.00000000000000E-01
      0.00000000000000E+00   0.00000000000000E+00   0.00000000000000E+00   0.00000000000000E+00   1.23852300703488E-36
     -1.23852300703488E-36   0.00000000000000E+00   3.84121905957617E-16   0.00000000000000E+00   0.00000000000000E+00
      0.00000000000000E+00   0.00000000000000E+00   5.95677062064307E-15  -1.37597286391376E-19   5.95663302335667E-15
      2.37262122190278E-15  -1.00000000000000E+00  -1.00000000000000E+00   0.00000000000000E+00   0.00000000000000E+00
     -1.39604470674484E-21  -9.16590577205707E-07  -9.16590577205709E-07  -1.80216878857764E-15   0.00000000000000E+00
      0.00000000000000E+00   0.00000000000000E+00   0.00000000000000E+00   7.33394268945922E-26   9.16590571249078E-07
      9.16590571249078E-07  -9.54574339282777E-16
      4.35093628213982E-01
     -8.77340705349556E-02  -8.77340705349556E-02   0.00000000000000E+00   0.00000000000000E+00   1.24932528158158E-36
     -1.24932528158158E-36   0.00000000000000E+00   3.15478269229415E-16   0.00000000000000E+00   0.00000000000000E+00
      0.00000000000000E+00   0.00000000000000E+00   5.90595984502754E-15   1.07632934732457E-18   5.90703617437486E-15
      2.38252935898640E-15  -1.00000000000000E+00  -1.00000000000000E+00   0.00000000000000E+00   0.00000000000000E+00
     -1.39630444911858E-21  -3.66133958619121E-06  -3.66133958619121E-06  -1.77103963038696E-15   0.00000000000000E+00
      0.00000000000000E+00   0.00000000000000E+00   0.00000000000000E+00   2.92954699160063E-25   3.66133958028421E-06
      3.66133958028421E-06  -9.26967997828849E-16
      4.78609727199320E-01
     -1.96524317998300E-01  -1.96524317998300E-01   0.00000000000000E+00   0.00000000000000E+00   1.28909604185995E-36
     -1.28909604185995E-36   0.00000000000000E+00   2.27866894168232E-16   0.00000000000000E+00   0.00000000000000E+00
      0.00000000000000E+00   0.00000000000000E+00   5.86737488480469E-15   6.89750843306018E-19   5.86806463564799E-15
      2.39966649184049E-15  -1.00000000000000E+00  -1.00000000000000E+00   0.00000000000000E+00   0.00000000000000E+00
     -1.39718670053747E-21  -1.36198356711605E-05  -1.36198356711605E-05  -1.73326451496476E-15   0.00000000000000E+00
      0.00000000000000E+00   0.00000000000000E+00   0.00000000000000E+00   1.08766060224178E-24   1.36198356652924E-05
      1.36198356652924E-05  -8.94268871043957E-16
      5.00000000000000E-01
     -2.50000000000000E-01  -2.50000000000000E-01   0.00000000000000E+00   0.00000000000000E+00   1.25149658020755E-36
     -1.25149658020755E-36   0.00000000000000E+00   1.83653177584162E-16   0.00000000000000E+00   0.00000000000000E+00
      0.00000000000000E+00   0.00000000000000E+00   5.85728509479747E-15   2.55329887390174E-18   5.85983839367137E-15
      2.41023158986797E-15  -1.00000000000000E+00  -1.00000000000000E+00   0.00000000000000E+00   0.00000000000000E+00
     -1.39792839603513E-21  -2.19944391010777E-05  -2.19944391010777E-05  -1.71512286514053E-15   0.00000000000000E+00
      0.00000000000000E+00   0.00000000000000E+00   0.00000000000000E+00   1.75779392972243E-24   2.19944390952179E-05
      2.19944390952179E-05  -8.78761902311622E-16
      5.51348996802699E-01
     -3.78372492006747E-01  -3.78372492006747E-01   0.00000000000000E+00   0.00000000000000E+00   1.26606636590434E-36
     -1.26606636590434E-36   0.00000000000000E+00   7.49934721951610E-17   0.00000000000000E+00   0.00000000000000E+00
      0.00000000000000E+00   0.00000000000000E+00   5.84768698648032E-15  -2.89669324092440E-18   5.84479029323940E-15
      2.44029928341620E-15  -1.00000000000000E+00  -1.00000000000000E+00   0.00000000000000E+00   0.00000000000000E+00
     -1.40045290447063E-21  -5.05002281159703E-05  -5.05002281159703E-05  -1.67263350052277E-15   0.00000000000000E+00
      0.00000000000000E+00   0.00000000000000E+00   0.00000000000000E+00   4.03554917921020E-24   5.05002281101256E-05
      5.05002281101256E-05  -8.42659255088605E-16
      6.00000000000000E-01
     -5.00000000000000E-01  -5.00000000000000E-01   0.00000000000000E+00   0.00000000000000E+00   1.23897929529750E-36
     -1.23897929529750E-36   0.00000000000000E+00  -3.02690724787705E-17   0.00000000000000E+00   0.00000000000000E+00
      0.00000000000000E+00   0.00000000000000E+00   5.84987648138633E-15   7.39247481797437E-19   5.85061572886812E-15
      2.47324584326191E-15  -1.00000000000000E+00  -1.00000000000000E+00   0.00000000000000E+00   0.00000000000000E+00
     -1.40356188819266E-21  -8.56084595189444E-05  -8.56084595189444E-05  -1.63347961524918E-15   0.00000000000000E+00
      0.00000000000000E+00   0.00000000000000E+00   0.00000000000000E+00   6.84545552336447E-24   8.56084595130939E-05
      8.56084595130939E-05  -8.09497155533954E-16
      6.63672756035346E-01
     -6.59181890088366E-01  -6.59181890088366E-01   0.00000000000000E+00   0.00000000000000E+00   5.77355545003334E-37
     -5.77355545003334E-37   0.00000000000000E+00  -1.70085788667465E-16   0.00000000000000E+00   0.00000000000000E+00
      0.00000000000000E+00   0.00000000000000E+00   5.86255505831180E-15   1.41393613582340E-18   5.86396899444762E-15
      2.52065111420485E-15  -1.00000000000000E+00  -1.00000000000000E+00   0.00000000000000E+00   0.00000000000000E+00
     -1.40829117615437E-21  -1.39019746451751E-04  -1.39019746451751E-04  -1.58341518787146E-15   0.00000000000000E+00
      0.00000000000000E+00   0.00000000000000E+00   0.00000000000000E+00   1.11175188940273E-23   1.39019746445887E-04
      1.39019746445887E-04  -7.67150137665906E-16
      7.00000000000000E-01
     -7.50000000000000E-01  -7.50000000000000E-01   0.00000000000000E+00   0.00000000000000E+00   2.06417436039067E-36
     -2.06417436039067E-36   0.00000000000000E+00  -2.50515654135457E-16   0.00000000000000E+00   0.00000000000000E+00
      0.00000000000000E+00   0.00000000000000E+00   5.87224441615149E-15  -3.11636937756928E-16   5.56060747839456E-15
      2.54924199845463E-15  -1.00000000000000E+00  -1.00000000000000E+00   0.00000000000000E+00   0.00000000000000E+00
     -1.41120649108763E-21  -1.71948254924889E-04  -1.71948254924889E-04  -1.55532098927420E-15   0.00000000000000E+00
      0.00000000000000E+00   0.00000000000000E+00   0.00000000000000E+00   1.37545200851076E-23   1.71948254919329E-04
      1.71948254919329E-04  -7.43405355044991E-16
      7.78954217483830E-01
     -9.47385543709574E-01  -9.47385543709574E-01   0.00000000000000E+00   0.00000000000000E+00   1.29555938465488E-36
     -1.29555938465488E-36   0.00000000000000E+00  -4.26274913612154E-16   0.00000000000000E+00   0.00000000000000E+00
      0.00000000000000E+00   0.00000000000000E+00   5.88963755812506E-15   2.04391182754451E-18   5.89168146995260E-15
      2.61413348649826E-15  -1.00000000000000E+00  -1.00000000000000E+00   0.00000000000000E+00   0.00000000000000E+00
     -1.41786226064320E-21  -2.47160871640663E-04  -2.47160871640663E-04  -1.49522366400335E-15   0.00000000000000E+00
      0.00000000000000E+00   0.00000000000000E+00   0.00000000000000E+00   1.97791130749101E-23   2.47160871634771E-04
      2.47160871634771E-04  -6.92634908882788E-16
      8.00000000000000E-01
     -1.00000000000000E+00  -1.00000000000000E+00   0.00000000000000E+00   0.00000000000000E+00   1.25253630826521E-36
     -1.25253630826521E-36   0.00000000000000E+00  -4.73261405289133E-16   0.00000000000000E+00   0.00000000000000E+00
      0.00000000000000E+00   0.00000000000000E+00   5.89264967859372E-15   2.23408428898419E-18   5.89488376288270E-15
      2.63194056083118E-15  -1.00000000000000E+00  -1.00000000000000E+00   0.00000000000000E+00   0.00000000000000E+00
     -1.41968692038765E-21  -2.67750640471931E-04  -2.67750640471931E-04  -1.47940744830687E-15   0.00000000000000E+00
      0.00000000000000E+00   0.00000000000000E+00   0.00000000000000E+00   2.14284207321452E-23   2.67750640466036E-04
      2.67750640466036E-04  -6.79271707235177E-16
      8.48951614839974E-01
     -1.12237903709994E+00  -1.12237903709994E+00   0.00000000000000E+00   0.00000000000000E+00   1.28929917755884E-36
     -1.28929917755884E-36   0.00000000000000E+00  -5.82663444634473E-16   0.00000000000000E+00   0.00000000000000E+00
      0.00000000000000E+00   0.00000000000000E+00   5.89781535241205E-15  -2.14408897471785E-18   5.89567126343733E-15
      2.67403263177797E-15  -1.00000000000000E+00  -1.00000000000000E+00   0.00000000000000E+00   0.00000000000000E+00
     -1.42396817448598E-21  -3.16126528990862E-04  -3.16126528990862E-04  -1.44293319677700E-15   0.00000000000000E+00
      0.00000000000000E+00   0.00000000000000E+00   0.00000000000000E+00   2.53070540360312E-23   3.16126528984966E-04
      3.16126528984966E-04  -6.48435990366497E-16
      9.00000000000000E-01
     -1.25000000000000E+00  -1.25000000000000E+00   0.00000000000000E+00   0.00000000000000E+00   7.50676716959961E-35
     -7.50676716959961E-35   0.00000000000000E+00  -6.96822695830687E-16   0.00000000000000E+00   0.00000000000000E+00
      0.00000000000000E+00   0.00000000000000E+00   5.90192951829983E-15   3.54887111997755E-18   5.90547838941980E-15
      2.71879844196709E-15  -1.00000000000000E+00  -1.00000000000000E+00   0.00000000000000E+00   0.00000000000000E+00
     -1.42846464359968E-21  -3.66937128397317E-04  -3.66937128397317E-04  -1.40535667570387E-15   0.00000000000000E+00
      0.00000000000000E+00   0.00000000000000E+00   0.00000000000000E+00   2.93828401400284E-23   3.66937128391412E-04
      3.66937128391412E-04  -6.16619070432549E-16
      9.60700002401568E-01
     -1.40175000600392E+00  -1.40175000600392E+00   0.00000000000000E+00   0.00000000000000E+00   4.10212674975824E-34
     -4.10212674975824E-34   0.00000000000000E+00  -8.32525152788681E-16   0.00000000000000E+00   0.00000000000000E+00
      0.00000000000000E+00   0.00000000000000E+00   5.90682885983515E-15  -6.03954923045328E-20   5.90676846434285E-15
      2.77301046256153E-15  -1.00000000000000E+00  -1.00000000000000E+00   0.00000000000000E+00   0.00000000000000E+00
     -1.43380879220018E-21  -4.27332515728933E-04  -4.27332515728933E-04  -1.36128659773466E-15   0.00000000000000E+00
      0.00000000000000E+00   0.00000000000000E+00   0.00000000000000E+00   3.42302464656412E-23   4.27332515723026E-04
      4.27332515723026E-04  -5.79198712038188E-16
      1.00000000000000E+00
     -1.50000000000000E+00  -1.50000000000000E+00   0.00000000000000E+00   0.00000000000000E+00   7.10500685082737E-36
     -7.10500685082737E-36   0.00000000000000E+00  -9.20304644307714E-16   0.00000000000000E+00   0.00000000000000E+00
      0.00000000000000E+00   0.00000000000000E+00   5.91019881127704E-15   6.38521964750351E-19   5.91083733324179E-15
      2.80860874823134E-15  -1.00000000000000E+00  -1.00000000000000E+00   0.00000000000000E+00   0.00000000000000E+00
     -1.43724814558653E-21  -4.66206159744474E-04  -4.66206159744474E-04  -1.33311070825884E-15   0.00000000000000E+00
      0.00000000000000E+00   0.00000000000000E+00   0.00000000000000E+00   3.73515395211681E-23   4.66206159738564E-04
      4.66206159738564E-04  -5.55193395664801E-16
}
