DF-ISE text

Info {
  version   = 1.0
  type      = xyplot
  datasets  = [
    "time"
    "gate OuterVoltage" "gate InnerVoltage" "gate QuasiFermiPotential" "gate DisplacementCurrent" "gate eCurrent"
    "gate hCurrent" "gate TotalCurrent" "gate Charge" "substrate OuterVoltage" "substrate InnerVoltage"
    "substrate QuasiFermiPotential" "substrate DisplacementCurrent" "substrate eCurrent" "substrate hCurrent" "substrate TotalCurrent"
    "substrate Charge" "drain OuterVoltage" "drain InnerVoltage" "drain QuasiFermiPotential" "drain DisplacementCurrent"
    "drain eCurrent" "drain hCurrent" "drain TotalCurrent" "drain Charge" "source OuterVoltage"
    "source InnerVoltage" "source QuasiFermiPotential" "source DisplacementCurrent" "source eCurrent" "source hCurrent"
    "source TotalCurrent" "source Charge" ]
  functions = [
    Time
    OuterVoltage InnerVoltage QuasiFermiPotential DisplacementCurrent eCurrent
    hCurrent TotalCurrent Charge OuterVoltage InnerVoltage
    QuasiFermiPotential DisplacementCurrent eCurrent hCurrent TotalCurrent
    Charge OuterVoltage InnerVoltage QuasiFermiPotential DisplacementCurrent
    eCurrent hCurrent TotalCurrent Charge OuterVoltage
    InnerVoltage QuasiFermiPotential DisplacementCurrent eCurrent hCurrent
    TotalCurrent Charge ]
}

Data {
      0.00000000000000E+00
      1.00000000000000E+00   1.00000000000000E+00   0.00000000000000E+00   0.00000000000000E+00   2.09645957649842E-37
     -2.09645957649842E-37   0.00000000000000E+00   7.49066271317738E-16   0.00000000000000E+00   0.00000000000000E+00
      0.00000000000000E+00   0.00000000000000E+00   4.42296638386418E-13  -7.43476315676980E-20   4.42296564038787E-13
      7.85811047202795E-15  -1.00000000000000E+00  -1.00000000000000E+00   0.00000000000000E+00   0.00000000000000E+00
     -1.13720246874151E-21  -4.20744885087477E-04  -4.20744885087477E-04  -5.14440209711025E-15   0.00000000000000E+00
      0.00000000000000E+00   0.00000000000000E+00   0.00000000000000E+00   5.82593352271109E-23   4.20744884645181E-04
      4.20744884645181E-04  -3.46277464623543E-15
      1.00000000000000E-03
      9.97500000000000E-01   9.97500000000000E-01   0.00000000000000E+00   0.00000000000000E+00   3.27626603367022E-35
     -3.27626603367022E-35   0.00000000000000E+00   7.47799968986064E-16   0.00000000000000E+00   0.00000000000000E+00
      0.00000000000000E+00   0.00000000000000E+00   4.42325993641294E-13   6.95839678177692E-16   4.43021833319472E-13
      7.85813046091112E-15  -1.00000000000000E+00  -1.00000000000000E+00   0.00000000000000E+00   0.00000000000000E+00
     -1.13343612031756E-21  -4.20950484312859E-04  -4.20950484312859E-04  -5.14365040301798E-15   0.00000000000000E+00
      0.00000000000000E+00   0.00000000000000E+00   0.00000000000000E+00   5.95157420292047E-23   4.20950483869838E-04
      4.20950483869838E-04  -3.46228002687920E-15
      2.30000000000000E-03
      9.94250000000000E-01   9.94250000000000E-01   0.00000000000000E+00   0.00000000000000E+00   6.75608224485114E-37
     -6.75608224485114E-37   0.00000000000000E+00   7.46153798940980E-16   0.00000000000000E+00   0.00000000000000E+00
      0.00000000000000E+00   0.00000000000000E+00   4.42363961762210E-13   1.02426938446584E-12   1.46663334622805E-12
      7.85815636783664E-15  -1.00000000000000E+00  -1.00000000000000E+00   0.00000000000000E+00   0.00000000000000E+00
     -1.13701460580676E-21  -4.21216487289019E-04  -4.21216487289019E-04  -5.14267410464961E-15   0.00000000000000E+00
      0.00000000000000E+00   0.00000000000000E+00   0.00000000000000E+00   5.85126038877422E-23   4.21216485822386E-04
      4.21216485822386E-04  -3.46163606212799E-15
      3.99000000000000E-03
      9.90025000000000E-01   9.90025000000000E-01   0.00000000000000E+00   0.00000000000000E+00   1.49521697644772E-36
     -1.49521697644772E-36   0.00000000000000E+00   7.44013817132713E-16   0.00000000000000E+00   0.00000000000000E+00
      0.00000000000000E+00   0.00000000000000E+00   4.42413441666967E-13   3.50370761182295E-15   4.45917149278790E-13
      7.85819004768506E-15  -1.00000000000000E+00  -1.00000000000000E+00   0.00000000000000E+00   0.00000000000000E+00
     -1.13707260946586E-21  -4.21563219538960E-04  -4.21563219538960E-04  -5.14140426180490E-15   0.00000000000000E+00
      0.00000000000000E+00   0.00000000000000E+00   0.00000000000000E+00   5.85648332001255E-23   4.21563219093044E-04
      4.21563219093044E-04  -3.46079960301287E-15
      6.18700000000000E-03
      9.84532500000000E-01   9.84532500000000E-01   0.00000000000000E+00   0.00000000000000E+00   3.87948669837346E-36
     -3.87948669837346E-36   0.00000000000000E+00   7.41231907307373E-16   0.00000000000000E+00   0.00000000000000E+00
      0.00000000000000E+00   0.00000000000000E+00   4.42477949406000E-13  -1.64509586208236E-14   4.26026990785177E-13
      7.85823382879321E-15  -1.00000000000000E+00  -1.00000000000000E+00   0.00000000000000E+00   0.00000000000000E+00
     -1.13673081694408E-21  -4.22015402253263E-04  -4.22015402253263E-04  -5.13975246884165E-15   0.00000000000000E+00
      0.00000000000000E+00   0.00000000000000E+00   0.00000000000000E+00   5.90283298011877E-23   4.22015401827237E-04
      4.22015401827237E-04  -3.45971326725893E-15
      9.04310000000000E-03
      9.77392250000000E-01   9.77392250000000E-01   0.00000000000000E+00   0.00000000000000E+00   1.04682704090124E-35
     -1.04682704090124E-35   0.00000000000000E+00   7.37615610373382E-16   0.00000000000000E+00   0.00000000000000E+00
      0.00000000000000E+00   0.00000000000000E+00   4.42562095711328E-13  -7.87637496473004E-14   3.63798346064027E-13
      7.85829078125975E-15  -1.00000000000000E+00  -1.00000000000000E+00   0.00000000000000E+00   0.00000000000000E+00
     -1.13575546109480E-21  -4.22605271031384E-04  -4.22605271031384E-04  -5.13760366661208E-15   0.00000000000000E+00
      0.00000000000000E+00   0.00000000000000E+00   0.00000000000000E+00   5.97326898967262E-23   4.22605270667587E-04
      4.22605270667587E-04  -3.45830272502105E-15
      1.27560300000000E-02
      9.68109925000000E-01   9.68109925000000E-01   0.00000000000000E+00   0.00000000000000E+00   3.12215155091461E-35
     -3.12215155091461E-35   0.00000000000000E+00   7.32914501042000E-16   0.00000000000000E+00   0.00000000000000E+00
      0.00000000000000E+00   0.00000000000000E+00   4.42671654754232E-13  -4.72097203721092E-13  -2.94255489668601E-14
      7.85836450910253E-15  -1.00000000000000E+00  -1.00000000000000E+00   0.00000000000000E+00   0.00000000000000E+00
     -1.13042833709750E-21  -4.23373137320118E-04  -4.23373137320118E-04  -5.13480801700745E-15   0.00000000000000E+00
      0.00000000000000E+00   0.00000000000000E+00   0.00000000000000E+00   6.05314360171970E-23   4.23373137349545E-04
      4.23373137349545E-04  -3.45647099313709E-15
      1.75828390000000E-02
      9.56042902500000E-01   9.56042902500000E-01   0.00000000000000E+00   0.00000000000000E+00   2.10860553921379E-37
     -2.10860553921379E-37   0.00000000000000E+00   7.26803198741529E-16   0.00000000000000E+00   0.00000000000000E+00
      0.00000000000000E+00   0.00000000000000E+00   4.42814321947122E-13  -1.56903347732215E-19   4.42814165043774E-13
      7.85845983404972E-15  -1.00000000000000E+00  -1.00000000000000E+00   0.00000000000000E+00   0.00000000000000E+00
     -1.13775045356739E-21  -4.24373796451051E-04  -4.24373796451051E-04  -5.13117114460022E-15   0.00000000000000E+00
      0.00000000000000E+00   0.00000000000000E+00   0.00000000000000E+00   5.88336449162963E-23   4.24373796008238E-04
      4.24373796008238E-04  -3.45409188819103E-15
      2.37611545200000E-02
      9.40597113700000E-01   9.40597113700000E-01   0.00000000000000E+00   0.00000000000000E+00   2.00343657259448E-37
     -2.00343657259448E-37   0.00000000000000E+00   7.18981175535697E-16   0.00000000000000E+00   0.00000000000000E+00
      0.00000000000000E+00   0.00000000000000E+00   4.42993896436922E-13   2.21694585224845E-18   4.42996113382774E-13
      7.85858365282211E-15  -1.00000000000000E+00  -1.00000000000000E+00   0.00000000000000E+00   0.00000000000000E+00
     -1.13794078016893E-21  -4.25634749471976E-04  -4.25634749471976E-04  -5.12653100947874E-15   0.00000000000000E+00
      0.00000000000000E+00   0.00000000000000E+00   0.00000000000000E+00   5.89675992090612E-23   4.25634749028981E-04
      4.25634749028981E-04  -3.45103381887907E-15
      3.16693983856000E-02
      9.20826504036000E-01   9.20826504036000E-01   0.00000000000000E+00   0.00000000000000E+00   2.10360533952859E-37
     -2.10360533952859E-37   0.00000000000000E+00   7.08969835252746E-16   0.00000000000000E+00   0.00000000000000E+00
      0.00000000000000E+00   0.00000000000000E+00   4.43224475268611E-13   7.82399443012729E-19   4.43225257668054E-13
      7.85874275559732E-15  -1.00000000000000E+00  -1.00000000000000E+00   0.00000000000000E+00   0.00000000000000E+00
     -1.13818555467248E-21  -4.27255546050817E-04  -4.27255546050817E-04  -5.12058690244007E-15   0.00000000000000E+00
      0.00000000000000E+00   0.00000000000000E+00   0.00000000000000E+00   5.91612080121970E-23   4.27255545607593E-04
      4.27255545607593E-04  -3.44712568841000E-15
      4.17919505335680E-02
      8.95520123666080E-01   8.95520123666080E-01   0.00000000000000E+00   0.00000000000000E+00   2.06269619054325E-37
     -2.06269619054325E-37   0.00000000000000E+00   6.96156671616249E-16   0.00000000000000E+00   0.00000000000000E+00
      0.00000000000000E+00   0.00000000000000E+00   4.43519637553137E-13   3.16788657284144E-18   4.43522805439710E-13
      7.85894691790959E-15  -1.00000000000000E+00  -1.00000000000000E+00   0.00000000000000E+00   0.00000000000000E+00
     -1.13849894277099E-21  -4.29333056535726E-04  -4.29333056535726E-04  -5.11297597591722E-15   0.00000000000000E+00
      0.00000000000000E+00   0.00000000000000E+00   0.00000000000000E+00   5.94630300417886E-23   4.29333056092204E-04
      4.29333056092204E-04  -3.44212761360863E-15
      5.47488172829670E-02
      8.63127956792582E-01   8.63127956792582E-01   0.00000000000000E+00   0.00000000000000E+00   2.02410535675607E-37
     -2.02410535675607E-37   0.00000000000000E+00   6.79758570112180E-16   0.00000000000000E+00   0.00000000000000E+00
      0.00000000000000E+00   0.00000000000000E+00   4.43894817351038E-13   2.28671608477007E-17   4.43917684511886E-13
      7.85920688461680E-15  -1.00000000000000E+00  -1.00000000000000E+00   0.00000000000000E+00   0.00000000000000E+00
     -1.13889617539547E-21  -4.31976018434695E-04  -4.31976018434695E-04  -5.10324174889726E-15   0.00000000000000E+00
      0.00000000000000E+00   0.00000000000000E+00   0.00000000000000E+00   5.98687532634868E-23   4.31976017990778E-04
      4.31976017990778E-04  -3.43572370583173E-15
      7.13336067221978E-02
      8.21665983194505E-01   8.21665983194505E-01   0.00000000000000E+00   0.00000000000000E+00   2.13583193147346E-37
     -2.13583193147346E-37   0.00000000000000E+00   6.58774100317573E-16   0.00000000000000E+00   0.00000000000000E+00
      0.00000000000000E+00   0.00000000000000E+00   4.44375936329791E-13   1.86626343327235E-17   4.44394598964123E-13
      7.85954010610813E-15  -1.00000000000000E+00  -1.00000000000000E+00   0.00000000000000E+00   0.00000000000000E+00
     -1.13940028696937E-21  -4.35370380258479E-04  -4.35370380258479E-04  -5.09077365510002E-15   0.00000000000000E+00
      0.00000000000000E+00   0.00000000000000E+00   0.00000000000000E+00   6.04064770322035E-23   4.35370379814086E-04
      4.35370379814086E-04  -3.42754055132570E-15
      9.25621372044132E-02
      7.68594656988967E-01   7.68594656988967E-01   0.00000000000000E+00   0.00000000000000E+00   2.55491879325998E-37
     -2.55491879325998E-37   0.00000000000000E+00   6.31920862083159E-16   0.00000000000000E+00   0.00000000000000E+00
      0.00000000000000E+00   0.00000000000000E+00   4.44994814735528E-13   1.46418070811137E-16   4.45141232806339E-13
      7.85996391965347E-15  -1.00000000000000E+00  -1.00000000000000E+00   0.00000000000000E+00   0.00000000000000E+00
     -1.14001472892451E-21  -4.39746694048896E-04  -4.39746694048896E-04  -5.07478530216914E-15   0.00000000000000E+00
      0.00000000000000E+00   0.00000000000000E+00   0.00000000000000E+00   6.09774730419080E-23   4.39746693603756E-04
      4.39746693603756E-04  -3.41709947956747E-15
      1.00000000000000E-01
      7.50000000000000E-01   7.50000000000000E-01   0.00000000000000E+00   0.00000000000000E+00   2.14734372099983E-37
     -2.14734372099983E-37   0.00000000000000E+00   6.22514556068926E-16   0.00000000000000E+00   0.00000000000000E+00
      0.00000000000000E+00   0.00000000000000E+00   4.45211823581130E-13   1.14999978162845E-18   4.45212973580912E-13
      7.86011295668571E-15  -1.00000000000000E+00  -1.00000000000000E+00   0.00000000000000E+00   0.00000000000000E+00
     -1.14030348790668E-21  -4.41283501315683E-04  -4.41283501315683E-04  -5.06918103526415E-15   0.00000000000000E+00
      0.00000000000000E+00   0.00000000000000E+00   0.00000000000000E+00   6.11228954036892E-23   4.41283500870471E-04
      4.41283500870471E-04  -3.41344647749052E-15
      1.27172519017236E-01
      6.82068702456911E-01   6.82068702456911E-01   0.00000000000000E+00   0.00000000000000E+00   2.95864678187897E-37
     -2.95864678187897E-37   0.00000000000000E+00   5.88162806775929E-16   0.00000000000000E+00   0.00000000000000E+00
      0.00000000000000E+00   0.00000000000000E+00   4.46004505990805E-13   3.94167050432756E-16   4.46398673041237E-13
      7.86066164562996E-15  -1.00000000000000E+00  -1.00000000000000E+00   0.00000000000000E+00   0.00000000000000E+00
     -1.14107881335816E-21  -4.46903068710868E-04  -4.46903068710868E-04  -5.04870367282353E-15   0.00000000000000E+00
      0.00000000000000E+00   0.00000000000000E+00   0.00000000000000E+00   6.20643752256412E-23   4.46903068264470E-04
      4.46903068264470E-04  -3.40012077958236E-15
      1.61953343359297E-01
      5.95116641601756E-01   5.95116641601756E-01   0.00000000000000E+00   0.00000000000000E+00   2.46535113303758E-36
     -2.46535113303758E-36   0.00000000000000E+00   5.44216003896699E-16   0.00000000000000E+00   0.00000000000000E+00
      0.00000000000000E+00   0.00000000000000E+00   4.47012643106938E-13   9.71654603514421E-15   4.56729189142082E-13
      7.86135817364308E-15  -1.00000000000000E+00  -1.00000000000000E+00   0.00000000000000E+00   0.00000000000000E+00
     -1.14074993944147E-21  -4.54063578331564E-04  -4.54063578331564E-04  -5.02248651307489E-15   0.00000000000000E+00
      0.00000000000000E+00   0.00000000000000E+00   0.00000000000000E+00   6.32115506135997E-23   4.54063577874836E-04
      4.54063577874836E-04  -3.38308766446488E-15
      2.00000000000000E-01
      5.00000000000000E-01   5.00000000000000E-01   0.00000000000000E+00   0.00000000000000E+00   4.64622057412631E-36
     -4.64622057412631E-36   0.00000000000000E+00   4.96181975639084E-16   0.00000000000000E+00   0.00000000000000E+00
      0.00000000000000E+00   0.00000000000000E+00   4.48113806696393E-13   2.03419303508574E-14   4.68455737047250E-13
      7.86212478029846E-15  -1.00000000000000E+00  -1.00000000000000E+00   0.00000000000000E+00   0.00000000000000E+00
     -1.14147145299854E-21  -4.61904563234213E-04  -4.61904563234213E-04  -4.99380115496538E-15   0.00000000000000E+00
      0.00000000000000E+00   0.00000000000000E+00   0.00000000000000E+00   6.49487994717955E-23   4.61904562765758E-04
      4.61904562765758E-04  -3.36450560097217E-15
      2.44519455157839E-01
      3.88701362105403E-01   3.88701362105403E-01   0.00000000000000E+00   0.00000000000000E+00   1.26243094235814E-35
     -1.26243094235814E-35   0.00000000000000E+00   4.40037218479202E-16   0.00000000000000E+00   0.00000000000000E+00
      0.00000000000000E+00   0.00000000000000E+00   4.49401663516966E-13   4.97259635127569E-14   4.99127627029723E-13
      7.86302633540895E-15  -1.00000000000000E+00  -1.00000000000000E+00   0.00000000000000E+00   0.00000000000000E+00
     -1.14462774048539E-21  -4.71098990267323E-04  -4.71098990267323E-04  -4.96022469820187E-15   0.00000000000000E+00
      0.00000000000000E+00   0.00000000000000E+00   0.00000000000000E+00   6.77419561406180E-23   4.71098989768197E-04
      4.71098989768197E-04  -3.34283885568630E-15
      3.00000000000000E-01
      2.50000000000000E-01   2.50000000000000E-01   0.00000000000000E+00   0.00000000000000E+00   2.05234537135815E-37
     -2.05234537135815E-37   0.00000000000000E+00   3.70176577644153E-16   0.00000000000000E+00   0.00000000000000E+00
      0.00000000000000E+00   0.00000000000000E+00   4.50997526435572E-13   9.87855429375193E-20   4.50997625221115E-13
      7.86415269991250E-15  -1.00000000000000E+00  -1.00000000000000E+00   0.00000000000000E+00   0.00000000000000E+00
     -1.14653340275699E-21  -4.82541865496172E-04  -4.82541865496172E-04  -4.91839406982847E-15   0.00000000000000E+00
      0.00000000000000E+00   0.00000000000000E+00   0.00000000000000E+00   6.69111742881925E-23   4.82541865045175E-04
      4.82541865045175E-04  -3.31593520772819E-15
      3.56984902602034E-01
      1.07537743494915E-01   1.07537743494915E-01   0.00000000000000E+00   0.00000000000000E+00   2.06883874300738E-37
     -2.06883874300738E-37   0.00000000000000E+00   2.98566473288484E-16   0.00000000000000E+00   0.00000000000000E+00
      0.00000000000000E+00   0.00000000000000E+00   4.52616235156311E-13   1.15939853436878E-18   4.52617394554845E-13
      7.86530765260939E-15  -1.00000000000000E+00  -1.00000000000000E+00   0.00000000000000E+00   0.00000000000000E+00
     -1.14830129218622E-21  -4.94252750238785E-04  -4.94252750238785E-04  -4.87546883872043E-15   0.00000000000000E+00
      0.00000000000000E+00   0.00000000000000E+00   0.00000000000000E+00   6.85655915763384E-23   4.94252749786168E-04
      4.94252749786168E-04  -3.28840528717746E-15
      4.00000000000000E-01
      0.00000000000000E+00   0.00000000000000E+00   0.00000000000000E+00   0.00000000000000E+00   2.00548089847655E-37
     -2.00548089847655E-37   0.00000000000000E+00   2.44622670644202E-16   0.00000000000000E+00   0.00000000000000E+00
      0.00000000000000E+00   0.00000000000000E+00   4.53814957749113E-13  -2.69587255158993E-20   4.53814930790387E-13
      7.86618227412391E-15  -1.00000000000000E+00  -1.00000000000000E+00   0.00000000000000E+00   0.00000000000000E+00
     -1.14962729554941E-21  -5.03035018311134E-04  -5.03035018311134E-04  -4.84311946296219E-15   0.00000000000000E+00
      0.00000000000000E+00   0.00000000000000E+00   0.00000000000000E+00   6.96818511764746E-23   5.03035017857320E-04
      5.03035017857320E-04  -3.26768548180592E-15
      4.71800977278563E-01
     -1.79502443196407E-01  -1.79502443196407E-01   0.00000000000000E+00   0.00000000000000E+00   2.00796418973552E-37
     -2.00796418973552E-37   0.00000000000000E+00   1.54828982071452E-16   0.00000000000000E+00   0.00000000000000E+00
      0.00000000000000E+00   0.00000000000000E+00   4.55762318519019E-13  -2.24202683543251E-19   4.55762094316335E-13
      7.86764726155730E-15  -1.00000000000000E+00  -1.00000000000000E+00   0.00000000000000E+00   0.00000000000000E+00
     -1.15175690883741E-21  -5.17607306258217E-04  -5.17607306258217E-04  -4.78924350274483E-15   0.00000000000000E+00
      0.00000000000000E+00   0.00000000000000E+00   0.00000000000000E+00   7.17692379464045E-23   5.17607305802457E-04
      5.17607305802457E-04  -3.23323274088393E-15
      5.00000000000000E-01
     -2.50000000000000E-01  -2.50000000000000E-01   0.00000000000000E+00   0.00000000000000E+00  -6.97640089140972E-35
      6.97640089140972E-35   0.00000000000000E+00   1.19655989255751E-16   0.00000000000000E+00   0.00000000000000E+00
      0.00000000000000E+00   0.00000000000000E+00   4.56503897646983E-13   8.38506598795268E-15   4.64888963634935E-13
      7.86822522126289E-15  -1.00000000000000E+00  -1.00000000000000E+00   0.00000000000000E+00   0.00000000000000E+00
     -1.10845435902155E-21  -5.23281854587849E-04  -5.23281854587849E-04  -4.76813968602118E-15   0.00000000000000E+00
      0.00000000000000E+00   0.00000000000000E+00   0.00000000000000E+00   7.25272413666338E-23   5.23281854122962E-04
      5.23281854122962E-04  -3.21974152449746E-15
      5.90469231370989E-01
     -4.76173078427472E-01  -4.76173078427472E-01   0.00000000000000E+00   0.00000000000000E+00   5.58835227629179E-37
     -5.58835227629179E-37   0.00000000000000E+00   7.20239444762729E-18   0.00000000000000E+00   0.00000000000000E+00
      0.00000000000000E+00   0.00000000000000E+00   4.58787232840632E-13  -1.73428830245363E-18   4.58785498552329E-13
      7.87009277343905E-15  -1.00000000000000E+00  -1.00000000000000E+00   0.00000000000000E+00   0.00000000000000E+00
     -1.15523867032477E-21  -5.41257764868790E-04  -5.41257764868790E-04  -4.70070006863838E-15   0.00000000000000E+00
      0.00000000000000E+00   0.00000000000000E+00   0.00000000000000E+00   7.51176491372591E-23   5.41257764410005E-04
      5.41257764410005E-04  -3.17659509924829E-15
      6.00000000000000E-01
     -5.00000000000000E-01  -5.00000000000000E-01   0.00000000000000E+00   0.00000000000000E+00  -4.15074971075094E-36
      4.15074971075094E-36   0.00000000000000E+00  -4.60795359398370E-18   0.00000000000000E+00   0.00000000000000E+00
      0.00000000000000E+00   0.00000000000000E+00   4.59019163042759E-13   5.26140370469763E-17   4.59071777079806E-13
      7.87029111178625E-15  -1.00000000000000E+00  -1.00000000000000E+00   0.00000000000000E+00   0.00000000000000E+00
     -1.15544366208662E-21  -5.43127408361046E-04  -5.43127408361046E-04  -4.69362264198199E-15   0.00000000000000E+00
      0.00000000000000E+00   0.00000000000000E+00   0.00000000000000E+00   7.53063903781733E-23   5.43127407901976E-04
      5.43127407901976E-04  -3.17206051621027E-15
      7.00000000000000E-01
     -7.50000000000000E-01  -7.50000000000000E-01   0.00000000000000E+00   0.00000000000000E+00   3.15746856684058E-37
     -3.15746856684058E-37   0.00000000000000E+00  -1.28078674044960E-16   0.00000000000000E+00   0.00000000000000E+00
      0.00000000000000E+00   0.00000000000000E+00   4.61357403380755E-13  -7.14857034763618E-19   4.61356688523720E-13
      7.87239038773595E-15  -1.00000000000000E+00  -1.00000000000000E+00   0.00000000000000E+00   0.00000000000000E+00
     -1.15859119678857E-21  -5.62413502113464E-04  -5.62413502113464E-04  -4.61972645076931E-15   0.00000000000000E+00
      0.00000000000000E+00   0.00000000000000E+00   0.00000000000000E+00   7.80838570002886E-23   5.62413501652108E-04
      5.62413501652108E-04  -3.12458526292167E-15
      8.00000000000000E-01
     -1.00000000000000E+00  -1.00000000000000E+00   0.00000000000000E+00   0.00000000000000E+00   2.28548996553450E-33
     -2.28548996553450E-33   0.00000000000000E+00  -2.50692071380680E-16   0.00000000000000E+00   0.00000000000000E+00
      0.00000000000000E+00   0.00000000000000E+00   4.63528174134549E-13  -3.17681052372872E-15   4.60351363610820E-13
      7.87453783289790E-15  -1.00000000000000E+00  -1.00000000000000E+00   0.00000000000000E+00   0.00000000000000E+00
     -1.15980008760361E-21  -5.80982093227696E-04  -5.80982093227696E-04  -4.54659841290832E-15   0.00000000000000E+00
      0.00000000000000E+00   0.00000000000000E+00   0.00000000000000E+00   8.05743917020990E-23   5.80982092767347E-04
      5.80982092767347E-04  -3.07724734860893E-15
      9.00000000000000E-01
     -1.25000000000000E+00  -1.25000000000000E+00   0.00000000000000E+00   0.00000000000000E+00   8.34191177239768E-33
     -8.34191177239768E-33   0.00000000000000E+00  -3.72400785288085E-16   0.00000000000000E+00   0.00000000000000E+00
      0.00000000000000E+00   0.00000000000000E+00   4.65537162528846E-13  -1.04600142058880E-14   4.55077148322958E-13
      7.87673664717569E-15  -1.00000000000000E+00  -1.00000000000000E+00   0.00000000000000E+00   0.00000000000000E+00
     -1.16408082720504E-21  -5.98739674156045E-04  -5.98739674156045E-04  -4.47434182293293E-15   0.00000000000000E+00
      0.00000000000000E+00   0.00000000000000E+00   0.00000000000000E+00   8.30622777491259E-23   5.98739673700969E-04
      5.98739673700969E-04  -3.02999403895468E-15
      1.00000000000000E+00
     -1.50000000000000E+00  -1.50000000000000E+00   0.00000000000000E+00   0.00000000000000E+00   7.17356580859907E-32
     -7.17356580859907E-32   0.00000000000000E+00  -4.93160176502543E-16   0.00000000000000E+00   0.00000000000000E+00
      0.00000000000000E+00   0.00000000000000E+00   4.67377427867288E-13  -4.77662706766016E-15   4.62600800799628E-13
      7.87899273642489E-15  -1.00000000000000E+00  -1.00000000000000E+00   0.00000000000000E+00   0.00000000000000E+00
     -1.16686346679787E-21  -6.15647855795415E-04  -6.15647855795415E-04  -4.40303870063676E-15   0.00000000000000E+00
      0.00000000000000E+00   0.00000000000000E+00   0.00000000000000E+00   8.54673619287668E-23   6.15647855332815E-04
      6.15647855332815E-04  -2.98279385928557E-15
}
