DF-ISE text

Info {
  version   = 1.0
  type      = xyplot
  datasets  = [
    "time"
    "gate OuterVoltage" "gate InnerVoltage" "gate QuasiFermiPotential" "gate DisplacementCurrent" "gate eCurrent"
    "gate hCurrent" "gate TotalCurrent" "gate Charge" "substrate OuterVoltage" "substrate InnerVoltage"
    "substrate QuasiFermiPotential" "substrate DisplacementCurrent" "substrate eCurrent" "substrate hCurrent" "substrate TotalCurrent"
    "substrate Charge" "drain OuterVoltage" "drain InnerVoltage" "drain QuasiFermiPotential" "drain DisplacementCurrent"
    "drain eCurrent" "drain hCurrent" "drain TotalCurrent" "drain Charge" "source OuterVoltage"
    "source InnerVoltage" "source QuasiFermiPotential" "source DisplacementCurrent" "source eCurrent" "source hCurrent"
    "source TotalCurrent" "source Charge" ]
  functions = [
    Time
    OuterVoltage InnerVoltage QuasiFermiPotential DisplacementCurrent eCurrent
    hCurrent TotalCurrent Charge OuterVoltage InnerVoltage
    QuasiFermiPotential DisplacementCurrent eCurrent hCurrent TotalCurrent
    Charge OuterVoltage InnerVoltage QuasiFermiPotential DisplacementCurrent
    eCurrent hCurrent TotalCurrent Charge OuterVoltage
    InnerVoltage QuasiFermiPotential DisplacementCurrent eCurrent hCurrent
    TotalCurrent Charge ]
}

Data {
      0.00000000000000E+00
     -1.00000000000000E+00  -1.00000000000000E+00   0.00000000000000E+00   0.00000000000000E+00   8.31250474499941E-36
     -8.31250474499941E-36   0.00000000000000E+00  -9.10953681435375E-16   0.00000000000000E+00   0.00000000000000E+00
      0.00000000000000E+00   0.00000000000000E+00   4.24726402412592E-20  -5.47223053646263E-15  -5.47218806382239E-15
     -3.87618687935447E-15   1.00000000000000E+00   1.00000000000000E+00   0.00000000000000E+00   0.00000000000000E+00
      5.47222890643260E-15   7.61115622794371E-21   5.47223651758883E-15   2.96371831877438E-15   0.00000000000000E+00
      0.00000000000000E+00   0.00000000000000E+00   0.00000000000000E+00  -4.84537702376202E-20   3.78672870938484E-27
     -4.84537664508915E-20   1.82342224201548E-15
      1.00000000000000E-03
     -9.97500000000000E-01  -9.97500000000000E-01   0.00000000000000E+00   0.00000000000000E+00   8.32719053669797E-36
     -8.32719053669797E-36   0.00000000000000E+00  -9.07690095830001E-16   0.00000000000000E+00   0.00000000000000E+00
      0.00000000000000E+00   0.00000000000000E+00  -4.88467831880185E-20  -5.47235242971050E-15  -5.47240127649369E-15
     -3.87791766136730E-15   1.00000000000000E+00   1.00000000000000E+00   0.00000000000000E+00   0.00000000000000E+00
      5.47234905080161E-15   7.61115848830959E-21   5.47235666196009E-15   2.96294164142599E-15   0.00000000000000E+00
      0.00000000000000E+00   0.00000000000000E+00   0.00000000000000E+00   4.46145208406857E-20   1.27550498400598E-26
      4.46145335957355E-20   1.82266611577130E-15
      2.28000000000000E-03
     -9.94300000000000E-01  -9.94300000000000E-01   0.00000000000000E+00   0.00000000000000E+00   8.10838135141023E-36
     -8.10838135141023E-36   0.00000000000000E+00  -9.03516621945259E-16   0.00000000000000E+00   0.00000000000000E+00
      0.00000000000000E+00   0.00000000000000E+00  -5.30774372214377E-20  -5.47250925113088E-15  -5.47256232856810E-15
     -3.88012873257378E-15   1.00000000000000E+00   1.00000000000000E+00   0.00000000000000E+00   0.00000000000000E+00
      5.47255094797826E-15   7.61116138338564E-21   5.47255855913964E-15   2.96194729826703E-15   0.00000000000000E+00
      0.00000000000000E+00   0.00000000000000E+00   0.00000000000000E+00   3.76944134602417E-21  -1.29009095108487E-26
      3.76942844511466E-21   1.82169805625201E-15
      3.91840000000000E-03
     -9.90204000000000E-01  -9.90204000000000E-01   0.00000000000000E+00   0.00000000000000E+00   8.09537838384416E-36
     -8.09537838384416E-36   0.00000000000000E+00  -8.98181002447789E-16   0.00000000000000E+00   0.00000000000000E+00
      0.00000000000000E+00   0.00000000000000E+00  -1.40316177071646E-20  -5.47271126282397E-15  -5.47272529444168E-15
     -3.88295179958915E-15   1.00000000000000E+00   1.00000000000000E+00   0.00000000000000E+00   0.00000000000000E+00
      5.47272175270704E-15   7.61116508955455E-21   5.47272936387213E-15   2.96067421817010E-15   0.00000000000000E+00
      0.00000000000000E+00   0.00000000000000E+00   0.00000000000000E+00  -4.06944810253998E-21   1.76383791526963E-26
     -4.06943046416083E-21   1.82045858386684E-15
      6.01555200000000E-03
     -9.84961120000000E-01  -9.84961120000000E-01   0.00000000000000E+00   0.00000000000000E+00   8.22538894775667E-36
     -8.22538894775667E-36   0.00000000000000E+00  -8.91361962925866E-16   0.00000000000000E+00   0.00000000000000E+00
      0.00000000000000E+00   0.00000000000000E+00   7.95421294653990E-21  -5.47297188311074E-15  -5.47296392889780E-15
     -3.88655366558423E-15   1.00000000000000E+00   1.00000000000000E+00   0.00000000000000E+00   0.00000000000000E+00
      5.47297933289506E-15   7.61116983486611E-21   5.47298694406489E-15   2.95904415107574E-15   0.00000000000000E+00
      0.00000000000000E+00   0.00000000000000E+00   0.00000000000000E+00  -2.30151796960100E-20   1.26074436771866E-26
     -2.30151670885663E-20   1.81887147743436E-15
      8.69990656000000E-03
     -9.78250233600000E-01  -9.78250233600000E-01   0.00000000000000E+00   0.00000000000000E+00   8.12242466981996E-36
     -8.12242466981996E-36   0.00000000000000E+00  -8.82650929151565E-16   0.00000000000000E+00   0.00000000000000E+00
      0.00000000000000E+00   0.00000000000000E+00  -5.22517865623332E-20  -5.47330873556708E-15  -5.47336098735365E-15
     -3.89114491089961E-15   1.00000000000000E+00   1.00000000000000E+00   0.00000000000000E+00   0.00000000000000E+00
      5.47335223568890E-15   7.61117591150474E-21   5.47335984686481E-15   2.95695680812719E-15   0.00000000000000E+00
      0.00000000000000E+00   0.00000000000000E+00   0.00000000000000E+00   1.14043592427003E-21   5.29102839102343E-26
      1.14048883455394E-21   1.81683903192397E-15
      1.21358803968000E-02
     -9.69660299008000E-01  -9.69660299008000E-01   0.00000000000000E+00   0.00000000000000E+00   8.24333559319199E-36
     -8.24333559319199E-36   0.00000000000000E+00  -8.71529299344495E-16   0.00000000000000E+00   0.00000000000000E+00
      0.00000000000000E+00   0.00000000000000E+00   3.47435686506958E-20  -5.47374509981321E-15  -5.47371035624456E-15
     -3.89699026555660E-15   1.00000000000000E+00   1.00000000000000E+00   0.00000000000000E+00   0.00000000000000E+00
      5.47375332013592E-15   7.61118369415827E-21   5.47376093131962E-15   2.95428361006969E-15   0.00000000000000E+00
      0.00000000000000E+00   0.00000000000000E+00   0.00000000000000E+00  -5.05750961242455E-20   2.10486007074082E-26
     -5.05750750756448E-20   1.81423595483141E-15
      1.65339269079040E-02
     -9.58665182730240E-01  -9.58665182730240E-01   0.00000000000000E+00   0.00000000000000E+00   8.08926983515978E-36
     -8.08926983515978E-36   0.00000000000000E+00  -8.57340461284333E-16   0.00000000000000E+00   0.00000000000000E+00
      0.00000000000000E+00   0.00000000000000E+00   4.31641559672740E-21  -5.47431199325865E-15  -5.47430767684305E-15
     -3.90442067435390E-15   1.00000000000000E+00   1.00000000000000E+00   0.00000000000000E+00   0.00000000000000E+00
      5.47430331230706E-15   7.61119366273185E-21   5.47431092350073E-15   2.95085963541114E-15   0.00000000000000E+00
      0.00000000000000E+00   0.00000000000000E+00   0.00000000000000E+00  -3.24664990852509E-21  -7.76590296356583E-27
     -3.24665767442805E-21   1.81090150022711E-15
      2.21634264421171E-02
     -9.44591433894707E-01  -9.44591433894707E-01   0.00000000000000E+00   0.00000000000000E+00   8.29103780657743E-36
     -8.29103780657743E-36   0.00000000000000E+00  -8.39255788613379E-16   0.00000000000000E+00   0.00000000000000E+00
      0.00000000000000E+00   0.00000000000000E+00   1.95397637693479E-19  -5.47505136152998E-15  -5.47485596389229E-15
     -3.91384676270589E-15   1.00000000000000E+00   1.00000000000000E+00   0.00000000000000E+00   0.00000000000000E+00
      5.47513242442825E-15   7.61120643387406E-21   5.47514003563469E-15   2.94647323463521E-15   0.00000000000000E+00
      0.00000000000000E+00   0.00000000000000E+00   0.00000000000000E+00  -2.84071754262673E-19   1.18815389238727E-26
     -2.84071742381135E-19   1.80662931668406E-15
      2.93691858459099E-02
     -9.26577035385225E-01  -9.26577035385225E-01   0.00000000000000E+00   0.00000000000000E+00   8.26934476952096E-36
     -8.26934476952096E-36   0.00000000000000E+00  -8.16234055022761E-16   0.00000000000000E+00   0.00000000000000E+00
      0.00000000000000E+00   0.00000000000000E+00   1.51848289558299E-18  -5.47602148792988E-15  -5.47450300503430E-15
     -3.92577288011349E-15   1.00000000000000E+00   1.00000000000000E+00   0.00000000000000E+00   0.00000000000000E+00
      5.47608403856701E-15   7.61122279925741E-21   5.47609164978981E-15   2.94085261109679E-15   0.00000000000000E+00
      0.00000000000000E+00   0.00000000000000E+00   0.00000000000000E+00  -1.58864475249179E-18  -3.02604279972709E-27
     -1.58864475551784E-18   1.80115432403947E-15
      3.85925578827647E-02
     -9.03518605293088E-01  -9.03518605293088E-01   0.00000000000000E+00   0.00000000000000E+00   8.61498684723670E-36
     -8.61498684723670E-36   0.00000000000000E+00  -7.86974145064914E-16   0.00000000000000E+00   0.00000000000000E+00
      0.00000000000000E+00   0.00000000000000E+00   1.16898749208702E-17  -5.47730707376537E-15  -5.46561719884450E-15
     -3.94081002986539E-15   1.00000000000000E+00   1.00000000000000E+00   0.00000000000000E+00   0.00000000000000E+00
      5.47731076150770E-15   7.61124377380638E-21   5.47731837275147E-15   2.93364845032381E-15   0.00000000000000E+00
      0.00000000000000E+00   0.00000000000000E+00   0.00000000000000E+00  -1.17011739014105E-17  -5.55186800689126E-27
     -1.17011739069624E-17   1.79413572460649E-15
      5.03984740899388E-02
     -8.74003814775153E-01  -8.74003814775153E-01   0.00000000000000E+00   0.00000000000000E+00   1.15338080724398E-35
     -1.15338080724398E-35   0.00000000000000E+00  -7.49861606611141E-16   0.00000000000000E+00   0.00000000000000E+00
      0.00000000000000E+00   0.00000000000000E+00   8.14411985262943E-17  -5.47903806597161E-15  -5.39759686744531E-15
     -3.95968477614491E-15   1.00000000000000E+00   1.00000000000000E+00   0.00000000000000E+00   0.00000000000000E+00
      5.47880737081920E-15   7.61127064179162E-21   5.47881498208985E-15   2.92441139248824E-15   0.00000000000000E+00
      0.00000000000000E+00   0.00000000000000E+00   0.00000000000000E+00  -8.12181146545503E-17   1.00202657401957E-26
     -8.12181146445301E-17   1.78513499026782E-15
      6.55100468351217E-02
     -8.36224882912196E-01  -8.36224882912196E-01   0.00000000000000E+00   0.00000000000000E+00   8.08575527298080E-36
     -8.08575527298080E-36   0.00000000000000E+00  -7.02910091929937E-16   0.00000000000000E+00   0.00000000000000E+00
      0.00000000000000E+00   0.00000000000000E+00   1.35053879768078E-20  -5.48141831185510E-15  -5.48140480646712E-15
     -3.98324003650738E-15   1.00000000000000E+00   1.00000000000000E+00   0.00000000000000E+00   0.00000000000000E+00
      5.48144289491435E-15   7.61130519288259E-21   5.48145050621954E-15   2.91256277407660E-15   0.00000000000000E+00
      0.00000000000000E+00   0.00000000000000E+00   0.00000000000000E+00  -4.56997631064218E-20   1.06782873192919E-26
     -4.56997524281344E-20   1.77358735436073E-15
      8.45506284940521E-02
     -7.88623428764870E-01  -7.88623428764870E-01   0.00000000000000E+00   0.00000000000000E+00   8.14242388121249E-36
     -8.14242388121249E-36   0.00000000000000E+00  -6.44615319674236E-16   0.00000000000000E+00   0.00000000000000E+00
      0.00000000000000E+00   0.00000000000000E+00   9.83620390462142E-20  -5.48469244437937E-15  -5.48459408234033E-15
     -4.01197618145781E-15   1.00000000000000E+00   1.00000000000000E+00   0.00000000000000E+00   0.00000000000000E+00
      5.48468892580110E-15   7.61134880672703E-21   5.48469653714990E-15   2.89759454100281E-15   0.00000000000000E+00
      0.00000000000000E+00   0.00000000000000E+00   0.00000000000000E+00  -1.02454801642946E-19  -7.92972974556630E-27
     -1.02454809572675E-19   1.75899696012925E-15
      1.00000000000000E-01
     -7.50000000000000E-01  -7.50000000000000E-01   0.00000000000000E+00   0.00000000000000E+00   8.20923997825852E-36
     -8.20923997825852E-36   0.00000000000000E+00  -5.97998040001430E-16   0.00000000000000E+00   0.00000000000000E+00
      0.00000000000000E+00   0.00000000000000E+00   1.43237823575471E-20  -5.48755762967024E-15  -5.48754330588788E-15
     -4.03454821592970E-15   1.00000000000000E+00   1.00000000000000E+00   0.00000000000000E+00   0.00000000000000E+00
      5.48759212573557E-15   7.61138397043671E-21   5.48759973711954E-15   2.88541870464962E-15   0.00000000000000E+00
      0.00000000000000E+00   0.00000000000000E+00   0.00000000000000E+00  -5.64312289589990E-20  -2.67816209718472E-27
     -5.64312316371611E-20   1.74712755128151E-15
      1.23991132890252E-01
     -6.90022167774369E-01  -6.90022167774369E-01   0.00000000000000E+00   0.00000000000000E+00   8.26107640805321E-36
     -8.26107640805321E-36   0.00000000000000E+00  -5.26748878213500E-16   0.00000000000000E+00   0.00000000000000E+00
      0.00000000000000E+00   0.00000000000000E+00  -1.26153996666618E-19  -5.49239278414351E-15  -5.49251893814017E-15
     -4.06835589671958E-15   1.00000000000000E+00   1.00000000000000E+00   0.00000000000000E+00   0.00000000000000E+00
      5.49244204872230E-15   7.61143777186216E-21   5.49244966016007E-15   2.86645901928906E-15   0.00000000000000E+00
      0.00000000000000E+00   0.00000000000000E+00   0.00000000000000E+00   6.92779547728462E-20   2.53225177452832E-26
      6.92779800953639E-20   1.72864575564402E-15
      1.54219960331970E-01
     -6.14450099170074E-01  -6.14450099170074E-01   0.00000000000000E+00   0.00000000000000E+00   8.20367437858089E-36
     -8.20367437858089E-36   0.00000000000000E+00  -4.38786806869030E-16   0.00000000000000E+00   0.00000000000000E+00
      0.00000000000000E+00   0.00000000000000E+00  -4.06864702527978E-20  -5.49933769702213E-15  -5.49937838349239E-15
     -4.10898099809251E-15   1.00000000000000E+00   1.00000000000000E+00   0.00000000000000E+00   0.00000000000000E+00
      5.49937724039642E-15   7.61150588337742E-21   5.49938485190230E-15   2.84248510435654E-15   0.00000000000000E+00
      0.00000000000000E+00   0.00000000000000E+00   0.00000000000000E+00  -6.46841209640139E-21   2.18234843925758E-27
     -6.46840991405295E-21   1.70528270060500E-15
      1.92308282908535E-01
     -5.19229292728663E-01  -5.19229292728663E-01   0.00000000000000E+00   0.00000000000000E+00   8.19302854560480E-36
     -8.19302854560480E-36   0.00000000000000E+00  -3.30481489301553E-16   0.00000000000000E+00   0.00000000000000E+00
      0.00000000000000E+00   0.00000000000000E+00   1.90236732240237E-19  -5.50964994285591E-15  -5.50945970612367E-15
     -4.15741965346947E-15   1.00000000000000E+00   1.00000000000000E+00   0.00000000000000E+00   0.00000000000000E+00
      5.50977577674673E-15   7.61159219681260E-21   5.50978338833893E-15   2.81215414114069E-15   0.00000000000000E+00
      0.00000000000000E+00   0.00000000000000E+00   0.00000000000000E+00  -3.23682223661179E-19   8.41057118463576E-27
     -3.23682215250608E-19   1.67574700163033E-15
      2.00000000000000E-01
     -5.00000000000000E-01  -5.00000000000000E-01   0.00000000000000E+00   0.00000000000000E+00   8.22973348589991E-36
     -8.22973348589991E-36   0.00000000000000E+00  -3.08916675585241E-16   0.00000000000000E+00   0.00000000000000E+00
      0.00000000000000E+00   0.00000000000000E+00   1.23318975420069E-21  -5.51197982913776E-15  -5.51197859594801E-15
     -4.16686829085280E-15   1.00000000000000E+00   1.00000000000000E+00   0.00000000000000E+00   0.00000000000000E+00
      5.51210379857864E-15   7.61160962580041E-21   5.51211141018827E-15   2.80601332872134E-15   0.00000000000000E+00
      0.00000000000000E+00   0.00000000000000E+00   0.00000000000000E+00  -1.32814231986666E-19  -8.27104506130122E-27
     -1.32814240257711E-19   1.66977163771669E-15
      2.47991286446471E-01
     -3.80021783883822E-01  -3.80021783883822E-01   0.00000000000000E+00   0.00000000000000E+00   7.97431591406688E-36
     -7.97431591406688E-36   0.00000000000000E+00  -1.76424725419063E-16   0.00000000000000E+00   0.00000000000000E+00
      0.00000000000000E+00   0.00000000000000E+00   5.22256473101957E-20  -5.52831901524038E-15  -5.52826678959307E-15
     -4.22359570887258E-15   1.00000000000000E+00   1.00000000000000E+00   0.00000000000000E+00   0.00000000000000E+00
      5.52880806625837E-15   7.61171620008383E-21   5.52881567797457E-15   2.76758943798029E-15   0.00000000000000E+00
      0.00000000000000E+00   0.00000000000000E+00   0.00000000000000E+00  -5.48888369638384E-19  -1.18735960565448E-26
     -5.48888381511980E-19   1.63243099631137E-15
      3.00000000000000E-01
     -2.50000000000000E-01  -2.50000000000000E-01   0.00000000000000E+00   0.00000000000000E+00   8.17622443037720E-36
     -8.17622443037720E-36   0.00000000000000E+00  -3.63449523641658E-17   0.00000000000000E+00   0.00000000000000E+00
      0.00000000000000E+00   0.00000000000000E+00   1.65396481908338E-21  -5.54918254462075E-15  -5.54918089065593E-15
     -4.28131841831514E-15   1.00000000000000E+00   1.00000000000000E+00   0.00000000000000E+00   0.00000000000000E+00
      5.55261800786674E-15   7.61183262897648E-21   5.55262561969937E-15   2.72575628377222E-15   0.00000000000000E+00
      0.00000000000000E+00   0.00000000000000E+00   0.00000000000000E+00  -3.44472903063636E-18  -1.28088344216234E-26
     -3.44472904344520E-18   1.59190708690707E-15
      3.59509195193625E-01
     -1.01227012015939E-01  -1.01227012015939E-01   0.00000000000000E+00   0.00000000000000E+00   8.20983949817014E-36
     -8.20983949817014E-36   0.00000000000000E+00   1.20313168144545E-16   0.00000000000000E+00   0.00000000000000E+00
      0.00000000000000E+00   0.00000000000000E+00  -6.50146833878229E-19  -5.58335235196146E-15  -5.58400249879534E-15
     -4.34357408908940E-15   1.00000000000000E+00   1.00000000000000E+00   0.00000000000000E+00   0.00000000000000E+00
      5.62513707854658E-15   7.61196680174865E-21   5.62514469051339E-15   2.67767933585060E-15   0.00000000000000E+00
      0.00000000000000E+00   0.00000000000000E+00   0.00000000000000E+00  -4.11421916963007E-17  -2.17623103466882E-26
     -4.11421917180631E-17   1.54558158509424E-15
      4.00000000000000E-01
      0.00000000000000E+00   0.00000000000000E+00   0.00000000000000E+00   0.00000000000000E+00   8.20762986382266E-36
     -8.20762986382266E-36   0.00000000000000E+00   2.25094826901732E-16   0.00000000000000E+00   0.00000000000000E+00
      0.00000000000000E+00   0.00000000000000E+00   2.37152280276159E-19  -5.62097585937734E-15  -5.62073870709706E-15
     -4.38411352805349E-15   1.00000000000000E+00   1.00000000000000E+00   0.00000000000000E+00   0.00000000000000E+00
      5.87858829656259E-15   7.61205827449994E-21   5.87859590862086E-15   2.64485693097586E-15   0.00000000000000E+00
      0.00000000000000E+00   0.00000000000000E+00   0.00000000000000E+00  -2.57857201538277E-16   1.44648957243356E-26
     -2.57857201523812E-16   1.51416177017588E-15
      4.73791402040094E-01
      1.84478505100236E-01   1.84478505100236E-01   0.00000000000000E+00   0.00000000000000E+00   8.32882803383433E-36
     -8.32882803383433E-36   0.00000000000000E+00   4.12926089141393E-16   0.00000000000000E+00   0.00000000000000E+00
      0.00000000000000E+00   0.00000000000000E+00  -1.38788357234296E-18  -5.71606390185024E-15  -5.71745178542258E-15
     -4.45508615840874E-15   1.00000000000000E+00   1.00000000000000E+00   0.00000000000000E+00   0.00000000000000E+00
      1.43676296136678E-14   7.61222636380740E-21   1.43676372258941E-14   2.58484999801373E-15   0.00000000000000E+00
      0.00000000000000E+00   0.00000000000000E+00   0.00000000000000E+00  -8.65018544046613E-15  -5.40615916786386E-27
     -8.65018544047154E-15   1.45731007125362E-15
      5.00000000000000E-01
      2.50000000000000E-01   2.50000000000000E-01   0.00000000000000E+00   0.00000000000000E+00   8.28665292317611E-36
     -8.28665292317611E-36   0.00000000000000E+00   4.78785224318239E-16   0.00000000000000E+00   0.00000000000000E+00
      0.00000000000000E+00   0.00000000000000E+00   9.69424670369327E-20  -5.73483850459402E-15  -5.73474156212698E-15
     -4.47957275126380E-15   1.00000000000000E+00   1.00000000000000E+00   0.00000000000000E+00   0.00000000000000E+00
      3.73368307027730E-14   7.61228649102174E-21   3.73368383150595E-14   2.56348743816086E-15   0.00000000000000E+00
      0.00000000000000E+00   0.00000000000000E+00   0.00000000000000E+00  -3.16020967529315E-14  -9.26921074363618E-28
     -3.16020967529325E-14   1.43730008878469E-15
      5.73791402040094E-01
      4.34478505100236E-01   4.34478505100236E-01   0.00000000000000E+00   0.00000000000000E+00   3.37653567897147E-36
     -3.37653567897147E-36   0.00000000000000E+00   6.62119129527102E-16   0.00000000000000E+00   0.00000000000000E+00
      0.00000000000000E+00   0.00000000000000E+00  -5.84411310787297E-19  -5.74498800438855E-15  -5.74557241569934E-15
     -4.54703883187783E-15   1.00000000000000E+00   1.00000000000000E+00   0.00000000000000E+00   0.00000000000000E+00
      1.36266538781290E-12   7.61245699043534E-21   1.36266539542535E-12   2.50323377295554E-15   0.00000000000000E+00
      0.00000000000000E+00   0.00000000000000E+00   0.00000000000000E+00  -1.35691982300969E-12   3.07988195822659E-26
     -1.35691982300965E-12   1.38168592939518E-15
      6.00000000000000E-01
      5.00000000000000E-01   5.00000000000000E-01   0.00000000000000E+00   0.00000000000000E+00   8.20057762612903E-36
     -8.20057762612903E-36   0.00000000000000E+00   7.26548728898032E-16   0.00000000000000E+00   0.00000000000000E+00
      0.00000000000000E+00   0.00000000000000E+00   2.84559597001111E-17  -5.74205897438786E-15  -5.71360301468775E-15
     -4.57060578236238E-15   1.00000000000000E+00   1.00000000000000E+00   0.00000000000000E+00   0.00000000000000E+00
      5.35639072101069E-12   7.61251798289204E-21   5.35639072862321E-12   2.48180503223128E-15   0.00000000000000E+00
      0.00000000000000E+00   0.00000000000000E+00   0.00000000000000E+00  -5.35067712560854E-12   1.01927912302370E-27
     -5.35067712560854E-12   1.36225202123305E-15
      6.87073854407311E-01
      7.17684636018278E-01   7.17684636018278E-01   0.00000000000000E+00   0.00000000000000E+00   8.25313491722220E-36
     -8.25313491722220E-36   0.00000000000000E+00   9.38338124756329E-16   0.00000000000000E+00   0.00000000000000E+00
      0.00000000000000E+00   0.00000000000000E+00   7.23474471679310E-19  -5.73421331576989E-15  -5.73348984129821E-15
     -4.64821093389783E-15   1.00000000000000E+00   1.00000000000000E+00   0.00000000000000E+00   0.00000000000000E+00
      5.78103195577716E-10   7.61272241325307E-21   5.78103195585329E-10   2.41056750015078E-15   0.00000000000000E+00
      0.00000000000000E+00   0.00000000000000E+00   0.00000000000000E+00  -5.78097462095490E-10   1.04281276087555E-26
     -5.78097462095490E-10   1.29930530899073E-15
      7.00000000000000E-01
      7.50000000000000E-01   7.50000000000000E-01   0.00000000000000E+00   0.00000000000000E+00   1.27780350840012E-35
     -1.27780350840012E-35   0.00000000000000E+00   9.69525304959149E-16   0.00000000000000E+00   0.00000000000000E+00
      0.00000000000000E+00   0.00000000000000E+00   1.77355880484912E-18  -5.72989111189812E-15  -5.72811755309327E-15
     -4.65973820779619E-15   1.00000000000000E+00   1.00000000000000E+00   0.00000000000000E+00   0.00000000000000E+00
      1.17600042258657E-09   7.61275306221779E-21   1.17600042259418E-09   2.39999337772165E-15   0.00000000000000E+00
      0.00000000000000E+00   0.00000000000000E+00   0.00000000000000E+00  -1.17599469447662E-09  -4.29063099245706E-27
     -1.17599469447662E-09   1.29021952511541E-15
      7.50000000000000E-01
      8.75000000000000E-01   8.75000000000000E-01   0.00000000000000E+00   0.00000000000000E+00   8.31640061054816E-36
     -8.31640061054816E-36   0.00000000000000E+00   1.08987050964490E-15   0.00000000000000E+00   0.00000000000000E+00
      0.00000000000000E+00   0.00000000000000E+00  -2.47844856046514E-18  -5.72082261472686E-15  -5.72330106328733E-15
     -4.70485758675157E-15   1.00000000000000E+00   1.00000000000000E+00   0.00000000000000E+00   0.00000000000000E+00
      1.87954229186757E-08   7.61287407391932E-21   1.87954229186833E-08   2.35911995737279E-15   0.00000000000000E+00
      0.00000000000000E+00   0.00000000000000E+00   0.00000000000000E+00  -1.87954171953824E-08  -1.99111612205815E-26
     -1.87954171953824E-08   1.25586711973389E-15
      8.00000000000000E-01
      1.00000000000000E+00   1.00000000000000E+00   0.00000000000000E+00   0.00000000000000E+00   8.31248902006680E-36
     -8.31248902006680E-36   0.00000000000000E+00   1.21117601527818E-15   0.00000000000000E+00   0.00000000000000E+00
      0.00000000000000E+00   0.00000000000000E+00  -2.98097827097128E-18  -5.72503538636987E-15  -5.72801636464084E-15
     -4.75254081068627E-15   1.00000000000000E+00   1.00000000000000E+00   0.00000000000000E+00   0.00000000000000E+00
      2.88811709151480E-07   7.61301595460746E-21   2.88811709151487E-07   2.31834895825236E-15   0.00000000000000E+00
      0.00000000000000E+00   0.00000000000000E+00   0.00000000000000E+00  -2.88811703423472E-07  -5.45718217678955E-28
     -2.88811703423472E-07   1.22301583715572E-15
      8.59000000000000E-01
      1.14750000000000E+00   1.14750000000000E+00   0.00000000000000E+00   0.00000000000000E+00   8.24898178189252E-36
     -8.24898178189252E-36   0.00000000000000E+00   1.36268422217392E-15   0.00000000000000E+00   0.00000000000000E+00
      0.00000000000000E+00   0.00000000000000E+00  -2.92943806843462E-18  -5.74588786003949E-15  -5.74881729810793E-15
     -4.81978093168530E-15   1.00000000000000E+00   1.00000000000000E+00   0.00000000000000E+00   0.00000000000000E+00
      4.00129915021371E-06   7.61357230189208E-21   4.00129915021371E-06   2.27072180820471E-15   0.00000000000000E+00
      0.00000000000000E+00   0.00000000000000E+00   0.00000000000000E+00  -4.00129914446491E-06  -4.23551860107316E-26
     -4.00129914446491E-06   1.18637490130666E-15
      9.00000000000000E-01
      1.25000000000000E+00   1.25000000000000E+00   0.00000000000000E+00   0.00000000000000E+00   4.75884420348271E-35
     -4.75884420348271E-35   0.00000000000000E+00   1.47674853425684E-15   0.00000000000000E+00   0.00000000000000E+00
      0.00000000000000E+00   0.00000000000000E+00   1.45961179250954E-16  -5.77259602216986E-15  -5.62663484291890E-15
     -4.87699396690162E-15   1.00000000000000E+00   1.00000000000000E+00   0.00000000000000E+00   0.00000000000000E+00
      1.25758402352077E-05   7.61464799501240E-21   1.25758402352077E-05   2.23834641925652E-15   0.00000000000000E+00
      0.00000000000000E+00   0.00000000000000E+00   0.00000000000000E+00  -1.25758402295812E-05  -1.15850607647292E-25
     -1.25758402295812E-05   1.16189901338827E-15
      9.35400000000000E-01
      1.33850000000000E+00   1.33850000000000E+00   0.00000000000000E+00   0.00000000000000E+00   8.87942534815549E-36
     -8.87942534815549E-36   0.00000000000000E+00   1.57961917169327E-15   0.00000000000000E+00   0.00000000000000E+00
      0.00000000000000E+00   0.00000000000000E+00   1.00893466895161E-17  -5.80103355915373E-15  -5.79094421246422E-15
     -4.93174813674393E-15   1.00000000000000E+00   1.00000000000000E+00   0.00000000000000E+00   0.00000000000000E+00
      2.46115823503399E-05   7.61610937417421E-21   2.46115823503400E-05   2.21096413793061E-15   0.00000000000000E+00
      0.00000000000000E+00   0.00000000000000E+00   0.00000000000000E+00  -2.46115823445491E-05  -1.78855297870619E-25
     -2.46115823445491E-05   1.14116482712005E-15
      9.79296000000000E-01
      1.44824000000000E+00   1.44824000000000E+00   0.00000000000000E+00   0.00000000000000E+00   9.63477148032082E-36
     -9.63477148032082E-36   0.00000000000000E+00   1.71086108402172E-15   0.00000000000000E+00   0.00000000000000E+00
      0.00000000000000E+00   0.00000000000000E+00  -6.12733479437758E-18  -5.83794357810774E-15  -5.84407091290211E-15
     -5.00440039123365E-15   1.00000000000000E+00   1.00000000000000E+00   0.00000000000000E+00   0.00000000000000E+00
      4.47023090931609E-05   7.61851618484150E-21   4.47023090931609E-05   2.17770879561205E-15   0.00000000000000E+00
      0.00000000000000E+00   0.00000000000000E+00   0.00000000000000E+00  -4.47023090873170E-05  -3.44578968975005E-25
     -4.47023090873170E-05   1.11583051159987E-15
      1.00000000000000E+00
      1.50000000000000E+00   1.50000000000000E+00   0.00000000000000E+00   0.00000000000000E+00   1.00464902766117E-35
     -1.00464902766117E-35   0.00000000000000E+00   1.77377197784413E-15   0.00000000000000E+00   0.00000000000000E+00
      0.00000000000000E+00   0.00000000000000E+00   3.70836135481156E-18  -5.85513370147312E-15  -5.85142534011831E-15
     -5.04004931847528E-15   1.00000000000000E+00   1.00000000000000E+00   0.00000000000000E+00   0.00000000000000E+00
      5.58618100676337E-05   7.61984546209825E-21   5.58618100676337E-05   2.16227557095692E-15   0.00000000000000E+00
      0.00000000000000E+00   0.00000000000000E+00   0.00000000000000E+00  -5.58618100617824E-05  -4.46330823728060E-25
     -5.58618100617824E-05   1.10400176967422E-15
}
