DF-ISE text

Info {
  version   = 1.0
  type      = xyplot
  datasets  = [
    "time"
    "gate OuterVoltage" "gate InnerVoltage" "gate QuasiFermiPotential" "gate DisplacementCurrent" "gate eCurrent"
    "gate hCurrent" "gate TotalCurrent" "gate Charge" "substrate OuterVoltage" "substrate InnerVoltage"
    "substrate QuasiFermiPotential" "substrate DisplacementCurrent" "substrate eCurrent" "substrate hCurrent" "substrate TotalCurrent"
    "substrate Charge" "drain OuterVoltage" "drain InnerVoltage" "drain QuasiFermiPotential" "drain DisplacementCurrent"
    "drain eCurrent" "drain hCurrent" "drain TotalCurrent" "drain Charge" "source OuterVoltage"
    "source InnerVoltage" "source QuasiFermiPotential" "source DisplacementCurrent" "source eCurrent" "source hCurrent"
    "source TotalCurrent" "source Charge" ]
  functions = [
    Time
    OuterVoltage InnerVoltage QuasiFermiPotential DisplacementCurrent eCurrent
    hCurrent TotalCurrent Charge OuterVoltage InnerVoltage
    QuasiFermiPotential DisplacementCurrent eCurrent hCurrent TotalCurrent
    Charge OuterVoltage InnerVoltage QuasiFermiPotential DisplacementCurrent
    eCurrent hCurrent TotalCurrent Charge OuterVoltage
    InnerVoltage QuasiFermiPotential DisplacementCurrent eCurrent hCurrent
    TotalCurrent Charge ]
}

Data {
      0.00000000000000E+00
      1.00000000000000E+00   1.00000000000000E+00   0.00000000000000E+00   0.00000000000000E+00   2.50728037881390E-36
     -2.50728037881390E-36   0.00000000000000E+00   9.18003214194265E-16   0.00000000000000E+00   0.00000000000000E+00
      0.00000000000000E+00   0.00000000000000E+00   9.05212390953709E-15   6.05381583927419E-20   9.05218444769548E-15
      3.96935182197943E-15  -1.00000000000000E+00  -1.00000000000000E+00   0.00000000000000E+00   0.00000000000000E+00
     -1.26321809170983E-21  -9.05236039686798E-15  -9.05236166008607E-15  -3.00050656678673E-15   0.00000000000000E+00
      0.00000000000000E+00   0.00000000000000E+00   0.00000000000000E+00   2.49478773514486E-28   1.77212390341382E-19
      1.77212390590860E-19  -1.88684846938701E-15
      1.00000000000000E-03
      9.97500000000000E-01   9.97500000000000E-01   0.00000000000000E+00   0.00000000000000E+00   2.56136182416234E-36
     -2.56136182416234E-36   0.00000000000000E+00   9.16105428464283E-16   0.00000000000000E+00   0.00000000000000E+00
      0.00000000000000E+00   0.00000000000000E+00   9.05063966029818E-15  -3.27838211590159E-20   9.05060687647703E-15
      3.96980820159764E-15  -1.00000000000000E+00  -1.00000000000000E+00   0.00000000000000E+00   0.00000000000000E+00
     -1.26321809807786E-21  -9.05093112180843E-15  -9.05093238502653E-15  -2.99977631255816E-15   0.00000000000000E+00
      0.00000000000000E+00   0.00000000000000E+00   0.00000000000000E+00   9.31297096049577E-29   3.25508549409469E-19
      3.25508549502599E-19  -1.88613731750373E-15
      2.28000000000000E-03
      9.94300000000000E-01   9.94300000000000E-01   0.00000000000000E+00   0.00000000000000E+00   2.51428031996252E-36
     -2.51428031996252E-36   0.00000000000000E+00   9.13677302421158E-16   0.00000000000000E+00   0.00000000000000E+00
      0.00000000000000E+00   0.00000000000000E+00   9.04873711198836E-15  -8.48172420432572E-20   9.04865229474632E-15
      3.97039093815289E-15  -1.00000000000000E+00  -1.00000000000000E+00   0.00000000000000E+00   0.00000000000000E+00
     -1.26321810462495E-21  -9.04899282185250E-15  -9.04899408507061E-15  -2.99884141458735E-15   0.00000000000000E+00
      0.00000000000000E+00   0.00000000000000E+00   0.00000000000000E+00  -3.66580685466789E-30   3.41790324295079E-19
      3.41790324291414E-19  -1.88522682598670E-15
      3.91840000000000E-03
      9.90204000000000E-01   9.90204000000000E-01   0.00000000000000E+00   0.00000000000000E+00   2.51542117202486E-36
     -2.51542117202486E-36   0.00000000000000E+00   9.10570990383213E-16   0.00000000000000E+00   0.00000000000000E+00
      0.00000000000000E+00   0.00000000000000E+00   9.04629752008537E-15  -7.74927313510800E-20   9.04622002735402E-15
      3.97113451713392E-15  -1.00000000000000E+00  -1.00000000000000E+00   0.00000000000000E+00   0.00000000000000E+00
     -1.26321811294023E-21  -9.04657323865026E-15  -9.04657450186838E-15  -2.99764446396911E-15   0.00000000000000E+00
      0.00000000000000E+00   0.00000000000000E+00   0.00000000000000E+00  -3.09769452294857E-28   3.54474514672176E-19
      3.54474514362407E-19  -1.88406104354802E-15
      6.01555200000000E-03
      9.84961120000000E-01   9.84961120000000E-01   0.00000000000000E+00   0.00000000000000E+00   2.52685808761833E-36
     -2.52685808761833E-36   0.00000000000000E+00   9.06597649148675E-16   0.00000000000000E+00   0.00000000000000E+00
      0.00000000000000E+00   0.00000000000000E+00   9.04316797405045E-15   1.12298832089847E-20   9.04317920393366E-15
      3.97208252869770E-15  -1.00000000000000E+00  -1.00000000000000E+00   0.00000000000000E+00   0.00000000000000E+00
     -1.26321812737469E-21  -9.04342407036017E-15  -9.04342533357830E-15  -2.99611190959148E-15   0.00000000000000E+00
      0.00000000000000E+00   0.00000000000000E+00   0.00000000000000E+00   4.11689116877321E-29   2.46129644618888E-19
      2.46129644660057E-19  -1.88256826825493E-15
      8.69990656000000E-03
      9.78250233600000E-01   9.78250233600000E-01   0.00000000000000E+00   0.00000000000000E+00   2.52468044674491E-36
     -2.52468044674491E-36   0.00000000000000E+00   9.01516196796518E-16   0.00000000000000E+00   0.00000000000000E+00
      0.00000000000000E+00   0.00000000000000E+00   9.03915136975400E-15  -1.77120043706451E-19   9.03897424971030E-15
      3.97328988658736E-15  -1.00000000000000E+00  -1.00000000000000E+00   0.00000000000000E+00   0.00000000000000E+00
     -1.26321814324076E-21  -9.03944016098952E-15  -9.03944142420766E-15  -2.99414949690423E-15   0.00000000000000E+00
      0.00000000000000E+00   0.00000000000000E+00   0.00000000000000E+00  -5.10420188818764E-29   4.67174497416276E-19
      4.67174497365234E-19  -1.88065658647964E-15
      1.21358803968000E-02
      9.69660299008000E-01   9.69660299008000E-01   0.00000000000000E+00   0.00000000000000E+00   2.52472141411524E-36
     -2.52472141411524E-36   0.00000000000000E+00   8.95019057868632E-16   0.00000000000000E+00   0.00000000000000E+00
      0.00000000000000E+00   0.00000000000000E+00   9.03399341088268E-15   1.47375747427596E-19   9.03414078663011E-15
      3.97482548074571E-15  -1.00000000000000E+00  -1.00000000000000E+00   0.00000000000000E+00   0.00000000000000E+00
     -1.26321816419795E-21  -9.03448699126768E-15  -9.03448825448585E-15  -2.99163640509024E-15   0.00000000000000E+00
      0.00000000000000E+00   0.00000000000000E+00   0.00000000000000E+00   2.30687248970475E-30   3.47467855752014E-19
      3.47467855754321E-19  -1.87820813352411E-15
      1.65339269079040E-02
      9.58665182730240E-01   9.58665182730240E-01   0.00000000000000E+00   0.00000000000000E+00   2.53606798400846E-36
     -2.53606798400846E-36   0.00000000000000E+00   8.86714117481804E-16   0.00000000000000E+00   0.00000000000000E+00
      0.00000000000000E+00   0.00000000000000E+00   9.02736554147049E-15   5.89926953372328E-20   9.02742453416583E-15
      3.97677529013991E-15  -1.00000000000000E+00  -1.00000000000000E+00   0.00000000000000E+00   0.00000000000000E+00
     -1.26321819177346E-21  -9.02772433524626E-15  -9.02772559846446E-15  -2.98841770473211E-15   0.00000000000000E+00
      0.00000000000000E+00   0.00000000000000E+00   0.00000000000000E+00  -1.80919534602536E-28   3.01064298824433E-19
      3.01064298643514E-19  -1.87507170288957E-15
      2.21634264421171E-02
      9.44591433894707E-01   9.44591433894707E-01   0.00000000000000E+00   0.00000000000000E+00   2.52156128400276E-36
     -2.52156128400276E-36   0.00000000000000E+00   8.76101912131808E-16   0.00000000000000E+00   0.00000000000000E+00
      0.00000000000000E+00   0.00000000000000E+00   9.01884423040253E-15  -3.62073515582996E-19   9.01848215688694E-15
      3.97924595474105E-15  -1.00000000000000E+00  -1.00000000000000E+00   0.00000000000000E+00   0.00000000000000E+00
     -1.26321822499696E-21  -9.01926209709339E-15  -9.01926336031162E-15  -2.98429464593720E-15   0.00000000000000E+00
      0.00000000000000E+00   0.00000000000000E+00   0.00000000000000E+00  -3.21030267965895E-28   7.81203424983947E-19
      7.81203424662917E-19  -1.87105322093563E-15
      2.93691858459099E-02
      9.26577035385225E-01   9.26577035385225E-01   0.00000000000000E+00   0.00000000000000E+00   2.55679878023188E-36
     -2.55679878023188E-36   0.00000000000000E+00   8.62546832009210E-16   0.00000000000000E+00   0.00000000000000E+00
      0.00000000000000E+00   0.00000000000000E+00   9.00788326099548E-15  -1.58969857147684E-18   9.00629356242401E-15
      3.98236877252158E-15  -1.00000000000000E+00  -1.00000000000000E+00   0.00000000000000E+00   0.00000000000000E+00
     -1.26321826986392E-21  -9.00848563165634E-15  -9.00848689487461E-15  -2.97901214160887E-15   0.00000000000000E+00
      0.00000000000000E+00   0.00000000000000E+00   0.00000000000000E+00   1.56869786963334E-28   2.19333245049891E-18
      2.19333245065578E-18  -1.86590346292196E-15
      3.85925578827647E-02
      9.03518605293088E-01   9.03518605293088E-01   0.00000000000000E+00   0.00000000000000E+00   2.51823246382064E-36
     -2.51823246382064E-36   0.00000000000000E+00   8.45240765963568E-16   0.00000000000000E+00   0.00000000000000E+00
      0.00000000000000E+00   0.00000000000000E+00   8.99378091923237E-15  -1.04921973756709E-17   8.98328872185670E-15
      3.98630406848238E-15  -1.00000000000000E+00  -1.00000000000000E+00   0.00000000000000E+00   0.00000000000000E+00
     -1.26321831643851E-21  -8.99416849397726E-15  -8.99416975719557E-15  -2.97224262376101E-15   0.00000000000000E+00
      0.00000000000000E+00   0.00000000000000E+00   0.00000000000000E+00  -1.70723308367490E-29   1.08810353388822E-17
      1.08810353388651E-17  -1.85930221068496E-15
      5.03984740899388E-02
      8.74003814775153E-01   8.74003814775153E-01   0.00000000000000E+00   0.00000000000000E+00   2.53142280714444E-36
     -2.53142280714444E-36   0.00000000000000E+00   8.23157129258298E-16   0.00000000000000E+00   0.00000000000000E+00
      0.00000000000000E+00   0.00000000000000E+00   8.97564174439536E-15  -6.16547557125145E-17   8.91398698868285E-15
      3.99124592547968E-15  -1.00000000000000E+00  -1.00000000000000E+00   0.00000000000000E+00   0.00000000000000E+00
     -1.26321837568580E-21  -8.97564724357173E-15  -8.97564850679011E-15  -2.96356521348360E-15   0.00000000000000E+00
      0.00000000000000E+00   0.00000000000000E+00   0.00000000000000E+00  -8.32722487850629E-28   6.16615181081037E-17
      6.16615181072710E-17  -1.85083784125436E-15
      6.55100468351217E-02
      8.36224882912196E-01   8.36224882912196E-01   0.00000000000000E+00   0.00000000000000E+00   2.54375413608051E-36
     -2.54375413608051E-36   0.00000000000000E+00   7.94992492970556E-16   0.00000000000000E+00   0.00000000000000E+00
      0.00000000000000E+00   0.00000000000000E+00   8.95233382232127E-15  -3.48033930081339E-16   8.60429989223993E-15
      3.99742745320023E-15  -1.00000000000000E+00  -1.00000000000000E+00   0.00000000000000E+00   0.00000000000000E+00
     -1.26321838676432E-21  -8.94858678441975E-15  -8.94858804763814E-15  -2.95243884781820E-15   0.00000000000000E+00
      0.00000000000000E+00   0.00000000000000E+00   0.00000000000000E+00  -3.06766908552514E-27   3.44288155401276E-16
      3.44288155398208E-16  -1.83998109835255E-15
      8.48528599489558E-02
      7.87867850127611E-01   7.87867850127611E-01   0.00000000000000E+00   0.00000000000000E+00   2.55890718706771E-36
     -2.55890718706771E-36   0.00000000000000E+00   7.59092014776739E-16   0.00000000000000E+00   0.00000000000000E+00
      0.00000000000000E+00   0.00000000000000E+00   8.92243597633981E-15  -1.52468422826488E-19   8.92228350791698E-15
      4.00512717488187E-15  -1.00000000000000E+00  -1.00000000000000E+00   0.00000000000000E+00   0.00000000000000E+00
     -1.26321859693723E-21  -8.92451726316835E-15  -8.92451852638694E-15  -2.93816763441575E-15   0.00000000000000E+00
      0.00000000000000E+00   0.00000000000000E+00   0.00000000000000E+00  -1.40565617873681E-28   2.23501847008653E-18
      2.23501846994596E-18  -1.82605155524286E-15
      1.00000000000000E-01
      7.50000000000000E-01   7.50000000000000E-01   0.00000000000000E+00   0.00000000000000E+00   2.50100858591323E-36
     -2.50100858591323E-36   0.00000000000000E+00   7.31083481873853E-16   0.00000000000000E+00   0.00000000000000E+00
      0.00000000000000E+00   0.00000000000000E+00   8.89900076697344E-15  -1.21706824427454E-19   8.89887906014901E-15
      4.01100767884765E-15  -1.00000000000000E+00  -1.00000000000000E+00   0.00000000000000E+00   0.00000000000000E+00
     -1.26321868914951E-21  -8.90249411235238E-15  -8.90249537557107E-15  -2.92697054290303E-15   0.00000000000000E+00
      0.00000000000000E+00   0.00000000000000E+00   0.00000000000000E+00   2.10875605566332E-28   3.61631542185554E-18
      3.61631542206642E-18  -1.81512061781850E-15
      1.24371944523431E-01
      6.89070138691423E-01   6.89070138691423E-01   0.00000000000000E+00   0.00000000000000E+00   2.50204697110767E-36
     -2.50204697110767E-36   0.00000000000000E+00   6.86186292583381E-16   0.00000000000000E+00   0.00000000000000E+00
      0.00000000000000E+00   0.00000000000000E+00   8.86114020464824E-15   1.88480427319424E-19   8.86132868507556E-15
      4.02022787157536E-15  -1.00000000000000E+00  -1.00000000000000E+00   0.00000000000000E+00   0.00000000000000E+00
     -1.26321883589959E-21  -8.87025759476564E-15  -8.87025885798447E-15  -2.90891785302920E-15   0.00000000000000E+00
      0.00000000000000E+00   0.00000000000000E+00   0.00000000000000E+00   1.52642924979843E-30   8.93017290889299E-18
      8.93017290889452E-18  -1.79749631112955E-15
      1.55080594622954E-01
      6.12298513442615E-01   6.12298513442615E-01   0.00000000000000E+00   0.00000000000000E+00   2.52372119689484E-36
     -2.52372119689484E-36   0.00000000000000E+00   6.29871726935047E-16   0.00000000000000E+00   0.00000000000000E+00
      0.00000000000000E+00   0.00000000000000E+00   8.81238761068313E-15   8.70003281670646E-20   8.81247461101129E-15
      4.03147830867868E-15  -1.00000000000000E+00  -1.00000000000000E+00   0.00000000000000E+00   0.00000000000000E+00
     -1.26321902179036E-21  -8.84257294084486E-15  -8.84257420406388E-15  -2.88611306931423E-15   0.00000000000000E+00
      0.00000000000000E+00   0.00000000000000E+00   0.00000000000000E+00   5.49884890031425E-28   3.00995930520461E-17
      3.00995930525960E-17  -1.77523696629950E-15
      1.93773493748353E-01
      5.15566265629118E-01   5.15566265629118E-01   0.00000000000000E+00   0.00000000000000E+00   2.50767709105975E-36
     -2.50767709105975E-36   0.00000000000000E+00   5.59255171832258E-16   0.00000000000000E+00   0.00000000000000E+00
      0.00000000000000E+00   0.00000000000000E+00   8.74668335421276E-15   3.60895269791082E-22   8.74668371510803E-15
      4.04516814082195E-15  -1.00000000000000E+00  -1.00000000000000E+00   0.00000000000000E+00   0.00000000000000E+00
     -1.26321925392055E-21  -8.89494312477859E-15  -8.89494438799785E-15  -2.85729602791957E-15   0.00000000000000E+00
      0.00000000000000E+00   0.00000000000000E+00   0.00000000000000E+00   4.56278180924948E-29   1.48260672889767E-16
      1.48260672889813E-16  -1.74712728473465E-15
      2.00000000000000E-01
      5.00000000000000E-01   5.00000000000000E-01   0.00000000000000E+00   0.00000000000000E+00   2.52082320232725E-36
     -2.52082320232725E-36   0.00000000000000E+00   5.47922428487705E-16   0.00000000000000E+00   0.00000000000000E+00
      0.00000000000000E+00   0.00000000000000E+00   8.73549436642611E-15  -2.24564570259926E-17   8.71303790940012E-15
      4.04732727560183E-15  -1.00000000000000E+00  -1.00000000000000E+00   0.00000000000000E+00   0.00000000000000E+00
     -1.26321928154876E-21  -8.92801886181186E-15  -8.92802012503115E-15  -2.85265079950650E-15   0.00000000000000E+00
      0.00000000000000E+00   0.00000000000000E+00   0.00000000000000E+00   9.28347334154239E-29   2.14982215630936E-16
      2.14982215631028E-16  -1.74259890458300E-15
      2.47979194915495E-01
      3.80052012711263E-01   3.80052012711263E-01   0.00000000000000E+00   0.00000000000000E+00   2.49190553927698E-36
     -2.49190553927698E-36   0.00000000000000E+00   4.60844689294485E-16   0.00000000000000E+00   0.00000000000000E+00
      0.00000000000000E+00   0.00000000000000E+00   8.64646933340564E-15  -2.22601845258802E-19   8.64624673156038E-15
      4.06362075211200E-15  -1.00000000000000E+00  -1.00000000000000E+00   0.00000000000000E+00   0.00000000000000E+00
     -1.26321957871326E-21  -1.01689390713479E-14  -1.01689403345675E-14  -2.81678901187389E-15   0.00000000000000E+00
      0.00000000000000E+00   0.00000000000000E+00   0.00000000000000E+00   1.69601030805576E-28   1.52269360300698E-15
      1.52269360300715E-15  -1.70767642953261E-15
      3.00000000000000E-01
      2.50000000000000E-01   2.50000000000000E-01   0.00000000000000E+00   0.00000000000000E+00   2.54756355234668E-36
     -2.54756355234668E-36   0.00000000000000E+00   3.66858263598069E-16   0.00000000000000E+00   0.00000000000000E+00
      0.00000000000000E+00   0.00000000000000E+00   8.55569200047686E-15  -7.75944871794092E-19   8.55491605560507E-15
      4.08072088225717E-15  -1.00000000000000E+00  -1.00000000000000E+00   0.00000000000000E+00   0.00000000000000E+00
     -1.26321989067957E-21  -2.39213836570222E-14  -2.39213849202421E-14  -2.77778448248785E-15   0.00000000000000E+00
      0.00000000000000E+00   0.00000000000000E+00   0.00000000000000E+00   4.16060094135720E-28   1.53664688646366E-14
      1.53664688646370E-14  -1.66979466336736E-15
      3.59494201695213E-01
      1.01264495761966E-01   1.01264495761966E-01   0.00000000000000E+00   0.00000000000000E+00   2.57149589571232E-36
     -2.57149589571232E-36   0.00000000000000E+00   2.59810751286756E-16   0.00000000000000E+00   0.00000000000000E+00
      0.00000000000000E+00   0.00000000000000E+00   8.47012748538175E-15   3.77615803880159E-19   8.47050510118563E-15
      4.09975685119053E-15  -1.00000000000000E+00  -1.00000000000000E+00   0.00000000000000E+00   0.00000000000000E+00
     -1.26322025066234E-21  -2.39064532354191E-13  -2.39064533617411E-13  -2.73304190371224E-15   0.00000000000000E+00
      0.00000000000000E+00   0.00000000000000E+00   0.00000000000000E+00   4.42442766302202E-28   2.30594028516225E-13
      2.30594028516225E-13  -1.62652569876505E-15
      4.00000000000000E-01
      0.00000000000000E+00   0.00000000000000E+00   0.00000000000000E+00   0.00000000000000E+00   2.53078212642356E-36
     -2.53078212642356E-36   0.00000000000000E+00   1.87154524585837E-16   0.00000000000000E+00   0.00000000000000E+00
      0.00000000000000E+00   0.00000000000000E+00   8.42156180968691E-15  -3.30743089495934E-19   8.42123106659741E-15
      4.11250268273951E-15  -1.00000000000000E+00  -1.00000000000000E+00   0.00000000000000E+00   0.00000000000000E+00
     -1.26322049415976E-21  -1.50923859608648E-12  -1.50923859734970E-12  -2.70250755468622E-15   0.00000000000000E+00
      0.00000000000000E+00   0.00000000000000E+00   0.00000000000000E+00  -2.61211172523408E-28   1.50081736628311E-12
      1.50081736628311E-12  -1.59714965263907E-15
      4.73772810102065E-01
     -1.84432025255162E-01  -1.84432025255162E-01   0.00000000000000E+00   0.00000000000000E+00   2.53993484744565E-36
     -2.53993484744565E-36   0.00000000000000E+00   5.52106263796294E-17   0.00000000000000E+00   0.00000000000000E+00
      0.00000000000000E+00   0.00000000000000E+00   8.31716317746978E-15   8.24884994231269E-20   8.31724566596921E-15
      4.13552735798744E-15  -1.00000000000000E+00  -1.00000000000000E+00   0.00000000000000E+00   0.00000000000000E+00
     -1.26322094180546E-21  -4.73966301511936E-11  -4.73966301524568E-11  -2.64676809554982E-15   0.00000000000000E+00
      0.00000000000000E+00   0.00000000000000E+00   0.00000000000000E+00  -4.91729244411634E-28   4.73883129067910E-11
      4.73883129067910E-11  -1.54396988881720E-15
      5.00000000000000E-01
     -2.50000000000000E-01  -2.50000000000000E-01   0.00000000000000E+00   0.00000000000000E+00   2.54352921310086E-36
     -2.54352921310086E-36   0.00000000000000E+00   8.39752427888158E-18   0.00000000000000E+00   0.00000000000000E+00
      0.00000000000000E+00   0.00000000000000E+00   8.26993948593417E-15   4.50319951161473E-19   8.27038980588533E-15
      4.14373742660047E-15  -1.00000000000000E+00  -1.00000000000000E+00   0.00000000000000E+00   0.00000000000000E+00
     -1.26322110905384E-21  -1.62956160980286E-10  -1.62956160981549E-10  -2.62691845683389E-15   0.00000000000000E+00
      0.00000000000000E+00   0.00000000000000E+00   0.00000000000000E+00  -9.98211847868413E-29   1.62947890591743E-10
      1.62947890591743E-10  -1.52521649404547E-15
      5.90002828324519E-01
     -4.75007070811297E-01  -4.75007070811297E-01   0.00000000000000E+00   0.00000000000000E+00   2.52959326303809E-36
     -2.52959326303809E-36   0.00000000000000E+00  -1.52139324513353E-16   0.00000000000000E+00   0.00000000000000E+00
      0.00000000000000E+00   0.00000000000000E+00   8.13086986067164E-15  -5.37687156049315E-19   8.13033217351559E-15
      4.17278981314495E-15  -1.00000000000000E+00  -1.00000000000000E+00   0.00000000000000E+00   0.00000000000000E+00
     -1.26322259109228E-21  -1.11326275817564E-08  -1.11326275817576E-08  -2.55871556825881E-15   0.00000000000000E+00
      0.00000000000000E+00   0.00000000000000E+00   0.00000000000000E+00   7.53842236076373E-28   1.11326194514255E-08
      1.11326194514255E-08  -1.46193492037277E-15
      6.00000000000000E-01
     -5.00000000000000E-01  -5.00000000000000E-01   0.00000000000000E+00   0.00000000000000E+00   2.49869696339103E-36
     -2.49869696339103E-36   0.00000000000000E+00  -1.69997114982134E-16   0.00000000000000E+00   0.00000000000000E+00
      0.00000000000000E+00   0.00000000000000E+00   8.11388637136720E-15  -4.59827330559191E-19   8.11342654403664E-15
      4.17618717077939E-15  -1.00000000000000E+00  -1.00000000000000E+00   0.00000000000000E+00   0.00000000000000E+00
     -1.26322320478913E-21  -1.76707316363092E-08  -1.76707316363105E-08  -2.55113678879010E-15   0.00000000000000E+00
      0.00000000000000E+00   0.00000000000000E+00   0.00000000000000E+00   1.75579613892719E-27   1.76707235228841E-08
      1.76707235228841E-08  -1.45505326700715E-15
      6.50000000000000E-01
     -6.25000000000000E-01  -6.25000000000000E-01   0.00000000000000E+00   0.00000000000000E+00   4.02045273886094E-36
     -4.02045273886094E-36   0.00000000000000E+00  -2.59701092871561E-16   0.00000000000000E+00   0.00000000000000E+00
      0.00000000000000E+00   0.00000000000000E+00   8.02315195390544E-15   1.66491480007063E-18   8.02481686870551E-15
      4.19426706059936E-15  -1.00000000000000E+00  -1.00000000000000E+00   0.00000000000000E+00   0.00000000000000E+00
     -1.26323608735818E-21  -1.65382072761578E-07  -1.65382072761579E-07  -2.51326557738368E-15   0.00000000000000E+00
      0.00000000000000E+00   0.00000000000000E+00   0.00000000000000E+00   1.30163255912361E-26   1.65382064736763E-07
      1.65382064736763E-07  -1.42130039034411E-15
      7.00000000000000E-01
     -7.50000000000000E-01  -7.50000000000000E-01   0.00000000000000E+00   0.00000000000000E+00   4.04821249493125E-36
     -4.04821249493125E-36   0.00000000000000E+00  -3.51022071952206E-16   0.00000000000000E+00   0.00000000000000E+00
      0.00000000000000E+00   0.00000000000000E+00   7.95586432128708E-15  -3.67845875249587E-18   7.95218586253459E-15
      4.21561116168402E-15  -1.00000000000000E+00  -1.00000000000000E+00   0.00000000000000E+00   0.00000000000000E+00
     -1.26331303637997E-21  -1.15108492945146E-06  -1.15108492945147E-06  -2.47562335531225E-15   0.00000000000000E+00
      0.00000000000000E+00   0.00000000000000E+00   0.00000000000000E+00   8.86204785853649E-26   1.15108492149928E-06
      1.15108492149928E-06  -1.38896573441958E-15
      7.61000000000000E-01
     -9.02500000000000E-01  -9.02500000000000E-01   0.00000000000000E+00   0.00000000000000E+00   2.57069652306878E-36
     -2.57069652306878E-36   0.00000000000000E+00  -4.66712647798896E-16   0.00000000000000E+00   0.00000000000000E+00
      0.00000000000000E+00   0.00000000000000E+00   7.91491381268155E-15  -1.27002154041150E-16   7.78791165864040E-15
      4.24884927922225E-15  -1.00000000000000E+00  -1.00000000000000E+00   0.00000000000000E+00   0.00000000000000E+00
     -1.26372613946517E-21  -5.91166609392211E-06  -5.91166609392212E-06  -2.43056294824563E-15   0.00000000000000E+00
      0.00000000000000E+00   0.00000000000000E+00   0.00000000000000E+00   4.56897634901688E-25   5.91166608613430E-06
      5.91166608613430E-06  -1.35157368317767E-15
      8.00000000000000E-01
     -1.00000000000000E+00  -1.00000000000000E+00   0.00000000000000E+00   0.00000000000000E+00   2.55079718648771E-36
     -2.55079718648771E-36   0.00000000000000E+00  -5.43147445791617E-16   0.00000000000000E+00   0.00000000000000E+00
      0.00000000000000E+00   0.00000000000000E+00   7.90914969668516E-15  -1.44983039085732E-18   7.90769986629430E-15
      4.27409216239950E-15  -1.00000000000000E+00  -1.00000000000000E+00   0.00000000000000E+00   0.00000000000000E+00
     -1.26421562765656E-21  -1.16564464134951E-05  -1.16564464134951E-05  -2.40238689071992E-15   0.00000000000000E+00
      0.00000000000000E+00   0.00000000000000E+00   0.00000000000000E+00   9.00243931588776E-25   1.16564464055874E-05
      1.16564464055874E-05  -1.32855782588799E-15
      8.75640000000000E-01
     -1.18910000000000E+00  -1.18910000000000E+00   0.00000000000000E+00   0.00000000000000E+00   2.49934664896985E-36
     -2.49934664896985E-36   0.00000000000000E+00  -6.95158657890666E-16   0.00000000000000E+00   0.00000000000000E+00
      0.00000000000000E+00   0.00000000000000E+00   7.91774822412398E-15  -5.73296640320068E-18   7.91201525772078E-15
      4.32928597040748E-15  -1.00000000000000E+00  -1.00000000000000E+00   0.00000000000000E+00   0.00000000000000E+00
     -1.26558618256089E-21  -2.77449848146842E-05  -2.77449848146842E-05  -2.34896197871618E-15   0.00000000000000E+00
      0.00000000000000E+00   0.00000000000000E+00   0.00000000000000E+00   2.14309484629985E-24   2.77449848067722E-05
      2.77449848067722E-05  -1.28516533380066E-15
      9.00000000000000E-01
     -1.25000000000000E+00  -1.25000000000000E+00   0.00000000000000E+00   0.00000000000000E+00   2.56499892590828E-36
     -2.56499892590828E-36   0.00000000000000E+00  -7.44871747760823E-16   0.00000000000000E+00   0.00000000000000E+00
      0.00000000000000E+00   0.00000000000000E+00   7.92288813735409E-15   1.56112979722078E-18   7.92444926715131E-15
      4.34836435422742E-15  -1.00000000000000E+00  -1.00000000000000E+00   0.00000000000000E+00   0.00000000000000E+00
     -1.26611886111827E-21  -3.39985944048632E-05  -3.39985944048632E-05  -2.33204744567572E-15   0.00000000000000E+00
      0.00000000000000E+00   0.00000000000000E+00   0.00000000000000E+00   2.62609082063251E-24   3.39985943969390E-05
      3.39985943969390E-05  -1.27144516079088E-15
      9.93793600000000E-01
     -1.48448400000000E+00  -1.48448400000000E+00   0.00000000000000E+00   0.00000000000000E+00   5.29330462051324E-36
     -5.29330462051324E-36   0.00000000000000E+00  -9.38585724204758E-16   0.00000000000000E+00   0.00000000000000E+00
      0.00000000000000E+00   0.00000000000000E+00   7.94592956452814E-15  -1.71699457821894E-14  -9.22401621766124E-15
      4.42604202306224E-15  -1.00000000000000E+00  -1.00000000000000E+00   0.00000000000000E+00   0.00000000000000E+00
     -1.26845651176522E-21  -6.14455934158999E-05  -6.14455934158999E-05  -2.26801797931103E-15   0.00000000000000E+00
      0.00000000000000E+00   0.00000000000000E+00   0.00000000000000E+00   4.74733558298675E-24   6.14455934251241E-05
      6.14455934251241E-05  -1.21943831954644E-15
      1.00000000000000E+00
     -1.50000000000000E+00  -1.50000000000000E+00   0.00000000000000E+00   0.00000000000000E+00  -1.01716160555292E-35
      1.01716160555292E-35   0.00000000000000E+00  -9.51506546289971E-16   0.00000000000000E+00   0.00000000000000E+00
      0.00000000000000E+00   0.00000000000000E+00   7.94755700502224E-15  -1.55796528909641E-14  -7.63209588594188E-15
      4.43137876897859E-15  -1.00000000000000E+00  -1.00000000000000E+00   0.00000000000000E+00   0.00000000000000E+00
     -1.26862385193867E-21  -6.34106336594088E-05  -6.34106336594088E-05  -2.26383700394214E-15   0.00000000000000E+00
      0.00000000000000E+00   0.00000000000000E+00   0.00000000000000E+00   4.89934725642292E-24   6.34106336670412E-05
      6.34106336670412E-05  -1.21603521874651E-15
}
