DF-ISE text

Info {
  version   = 1.0
  type      = xyplot
  datasets  = [
    "time"
    "gate OuterVoltage" "gate InnerVoltage" "gate QuasiFermiPotential" "gate DisplacementCurrent" "gate eCurrent"
    "gate hCurrent" "gate TotalCurrent" "gate Charge" "substrate OuterVoltage" "substrate InnerVoltage"
    "substrate QuasiFermiPotential" "substrate DisplacementCurrent" "substrate eCurrent" "substrate hCurrent" "substrate TotalCurrent"
    "substrate Charge" "drain OuterVoltage" "drain InnerVoltage" "drain QuasiFermiPotential" "drain DisplacementCurrent"
    "drain eCurrent" "drain hCurrent" "drain TotalCurrent" "drain Charge" "source OuterVoltage"
    "source InnerVoltage" "source QuasiFermiPotential" "source DisplacementCurrent" "source eCurrent" "source hCurrent"
    "source TotalCurrent" "source Charge" ]
  functions = [
    Time
    OuterVoltage InnerVoltage QuasiFermiPotential DisplacementCurrent eCurrent
    hCurrent TotalCurrent Charge OuterVoltage InnerVoltage
    QuasiFermiPotential DisplacementCurrent eCurrent hCurrent TotalCurrent
    Charge OuterVoltage InnerVoltage QuasiFermiPotential DisplacementCurrent
    eCurrent hCurrent TotalCurrent Charge OuterVoltage
    InnerVoltage QuasiFermiPotential DisplacementCurrent eCurrent hCurrent
    TotalCurrent Charge ]
}

Data {
      0.00000000000000E+00
      1.00000000000000E+00   1.00000000000000E+00   0.00000000000000E+00   0.00000000000000E+00   2.54795916335769E-36
     -2.54795916335769E-36   0.00000000000000E+00   7.25209193309047E-16   0.00000000000000E+00   0.00000000000000E+00
      0.00000000000000E+00   0.00000000000000E+00   3.48868558888273E-13   8.28842187145401E-21   3.48868567176695E-13
      6.01421009293434E-15  -1.00000000000000E+00  -1.00000000000000E+00   0.00000000000000E+00   0.00000000000000E+00
     -1.09060272509760E-21  -3.48868594521378E-13  -3.48868595611981E-13  -4.14330702026495E-15   0.00000000000000E+00
      0.00000000000000E+00   0.00000000000000E+00   0.00000000000000E+00  -1.85797089307435E-26   2.84353039443119E-20
      2.84352853646030E-20  -2.59611226597843E-15
      1.00000000000000E-03
      9.97500000000000E-01   9.97500000000000E-01   0.00000000000000E+00   0.00000000000000E+00   2.56179318502285E-36
     -2.56179318502285E-36   0.00000000000000E+00   7.22836621513867E-16   0.00000000000000E+00   0.00000000000000E+00
      0.00000000000000E+00   0.00000000000000E+00   3.48838843519737E-13   8.66229829746182E-22   3.48838844385967E-13
      6.01530350761624E-15  -1.00000000000000E+00  -1.00000000000000E+00   0.00000000000000E+00   0.00000000000000E+00
     -1.09060284066979E-21  -3.48838878552093E-13  -3.48838879642696E-13  -4.14266869279931E-15   0.00000000000000E+00
      0.00000000000000E+00   0.00000000000000E+00   0.00000000000000E+00   1.15999235611091E-26   3.52567165997474E-20
      3.52567281996710E-20  -2.59547143633081E-15
      2.28000000000000E-03
      9.94300000000000E-01   9.94300000000000E-01   0.00000000000000E+00   0.00000000000000E+00   3.40877318991918E-36
     -3.40877318991918E-36   0.00000000000000E+00   7.19800732719610E-16   0.00000000000000E+00   0.00000000000000E+00
      0.00000000000000E+00   0.00000000000000E+00   3.48800932681055E-13   2.21581105029094E-17   3.48823090791558E-13
      6.01670178781693E-15  -1.00000000000000E+00  -1.00000000000000E+00   0.00000000000000E+00   0.00000000000000E+00
     -1.09034161464553E-21  -3.48800962641886E-13  -3.48800963732228E-13  -4.14185150878418E-15   0.00000000000000E+00
      0.00000000000000E+00   0.00000000000000E+00   0.00000000000000E+00  -1.63804592415320E-23  -2.21270429493785E-17
     -2.21270593298377E-17  -2.59465101175238E-15
      3.94400000000000E-03
      9.90140000000000E-01   9.90140000000000E-01   0.00000000000000E+00   0.00000000000000E+00   2.54001469717318E-36
     -2.54001469717318E-36   0.00000000000000E+00   7.15855763923406E-16   0.00000000000000E+00   0.00000000000000E+00
      0.00000000000000E+00   0.00000000000000E+00   3.48751858585264E-13   1.27984570495751E-20   3.48751871383721E-13
      6.01851738295845E-15  -1.00000000000000E+00  -1.00000000000000E+00   0.00000000000000E+00   0.00000000000000E+00
     -1.09060294140919E-21  -3.48751893857530E-13  -3.48751894948133E-13  -4.14078896004144E-15   0.00000000000000E+00
      0.00000000000000E+00   0.00000000000000E+00   0.00000000000000E+00   1.44436011059254E-26   2.35643983624398E-20
      2.35644128060409E-20  -2.59358418684041E-15
      6.07392000000000E-03
      9.84815200000000E-01   9.84815200000000E-01   0.00000000000000E+00   0.00000000000000E+00   2.55728066244121E-36
     -2.55728066244121E-36   0.00000000000000E+00   7.10808991738611E-16   0.00000000000000E+00   0.00000000000000E+00
      0.00000000000000E+00   0.00000000000000E+00   3.48689391338732E-13   6.09749620952970E-21   3.48689397436228E-13
      6.02083776124454E-15  -1.00000000000000E+00  -1.00000000000000E+00   0.00000000000000E+00   0.00000000000000E+00
     -1.09060299559010E-21  -3.48689428604995E-13  -3.48689429695598E-13  -4.13942855219462E-15   0.00000000000000E+00
      0.00000000000000E+00   0.00000000000000E+00   0.00000000000000E+00   9.02646041241326E-27   3.22593602535722E-20
      3.22593692800326E-20  -2.59221820078854E-15
      8.80021760000000E-03
      9.77999456000000E-01   9.77999456000000E-01   0.00000000000000E+00   0.00000000000000E+00   2.52947557025084E-36
     -2.52947557025084E-36   0.00000000000000E+00   7.04353702946659E-16   0.00000000000000E+00   0.00000000000000E+00
      0.00000000000000E+00   0.00000000000000E+00   3.48610005137147E-13   1.01369656355444E-20   3.48610015274112E-13
      6.02380196282673E-15  -1.00000000000000E+00  -1.00000000000000E+00   0.00000000000000E+00   0.00000000000000E+00
     -1.09060310941120E-21  -3.48610040317999E-13  -3.48610041408602E-13  -4.13768666448496E-15   0.00000000000000E+00
      0.00000000000000E+00   0.00000000000000E+00   0.00000000000000E+00   2.98805357403407E-27   2.61344865608807E-20
      2.61344895489343E-20  -2.59046900128841E-15
      1.22898785280000E-02
      9.69275303680000E-01   9.69275303680000E-01   0.00000000000000E+00   0.00000000000000E+00   2.52526005516896E-36
     -2.52526005516896E-36   0.00000000000000E+00   6.96098460782005E-16   0.00000000000000E+00   0.00000000000000E+00
      0.00000000000000E+00   0.00000000000000E+00   3.48509332922594E-13   6.45414357426618E-21   3.48509339376738E-13
      6.02758647970455E-15  -1.00000000000000E+00  -1.00000000000000E+00   0.00000000000000E+00   0.00000000000000E+00
     -1.09060322889761E-21  -3.48509368948052E-13  -3.48509370038655E-13  -4.13545612215778E-15   0.00000000000000E+00
      0.00000000000000E+00   0.00000000000000E+00   0.00000000000000E+00  -1.82626907196222E-26   3.06619356594946E-20
      3.06619173968039E-20  -2.58822881832876E-15
      1.67566445158400E-02
      9.58108388710400E-01   9.58108388710400E-01   0.00000000000000E+00   0.00000000000000E+00   2.54239932420434E-36
     -2.54239932420434E-36   0.00000000000000E+00   6.85544132697725E-16   0.00000000000000E+00   0.00000000000000E+00
      0.00000000000000E+00   0.00000000000000E+00   3.48382027138716E-13   3.74030631647519E-21   3.48382030879022E-13
      6.03241478642750E-15  -1.00000000000000E+00  -1.00000000000000E+00   0.00000000000000E+00   0.00000000000000E+00
     -1.09060340287394E-21  -3.48382062748603E-13  -3.48382063839207E-13  -4.13259951233480E-15   0.00000000000000E+00
      0.00000000000000E+00   0.00000000000000E+00   0.00000000000000E+00   4.54377210403571E-27   3.29601795000597E-20
      3.29601840438318E-20  -2.58535940679040E-15
      2.24741049802752E-02
      9.43814737549312E-01   9.43814737549312E-01   0.00000000000000E+00   0.00000000000000E+00   2.54411730423738E-36
     -2.54411730423738E-36   0.00000000000000E+00   6.72054975988496E-16   0.00000000000000E+00   0.00000000000000E+00
      0.00000000000000E+00   0.00000000000000E+00   3.48221646546986E-13   5.31328458510685E-21   3.48221651860270E-13
      6.03856891942801E-15  -1.00000000000000E+00  -1.00000000000000E+00   0.00000000000000E+00   0.00000000000000E+00
     -1.09060359333115E-21  -3.48221681888299E-13  -3.48221682978902E-13  -4.12894057213716E-15   0.00000000000000E+00
      0.00000000000000E+00   0.00000000000000E+00   0.00000000000000E+00  -2.55497286150430E-26   3.11186568905190E-20
      3.11186313407904E-20  -2.58168332327934E-15
      2.97924543747523E-02
      9.25518864063119E-01   9.25518864063119E-01   0.00000000000000E+00   0.00000000000000E+00   2.58574905151509E-36
     -2.58574905151509E-36   0.00000000000000E+00   6.54822438226769E-16   0.00000000000000E+00   0.00000000000000E+00
      0.00000000000000E+00   0.00000000000000E+00   3.48020621879683E-13  -8.89529427265303E-21   3.48020612984389E-13
      6.04640327681503E-15  -1.00000000000000E+00  -1.00000000000000E+00   0.00000000000000E+00   0.00000000000000E+00
     -1.09060388607285E-21  -3.48020657400321E-13  -3.48020658490925E-13  -4.12425307425777E-15   0.00000000000000E+00
      0.00000000000000E+00   0.00000000000000E+00   0.00000000000000E+00   9.37108590201525E-27   4.55065256439531E-20
      4.55065350150390E-20  -2.57697264078402E-15
      3.91599415996829E-02
      9.02100146000793E-01   9.02100146000793E-01   0.00000000000000E+00   0.00000000000000E+00   2.55092868699244E-36
     -2.55092868699244E-36   0.00000000000000E+00   6.32820158728813E-16   0.00000000000000E+00   0.00000000000000E+00
      0.00000000000000E+00   0.00000000000000E+00   3.47770397231956E-13  -1.07653528944278E-19   3.47770289578427E-13
      6.05636060447340E-15  -1.00000000000000E+00  -1.00000000000000E+00   0.00000000000000E+00   0.00000000000000E+00
     -1.09060420363888E-21  -3.47770432450054E-13  -3.47770433540658E-13  -4.11824645308137E-15   0.00000000000000E+00
      0.00000000000000E+00   0.00000000000000E+00   0.00000000000000E+00   3.53421934332612E-27   1.43962227816382E-19
      1.43962231350601E-19  -2.57093431012084E-15
      5.11503252475941E-02
      8.72124186881015E-01   8.72124186881015E-01   0.00000000000000E+00   0.00000000000000E+00   2.56808887096244E-36
     -2.56808887096244E-36   0.00000000000000E+00   6.04748555251391E-16   0.00000000000000E+00   0.00000000000000E+00
      0.00000000000000E+00   0.00000000000000E+00   3.47461928883298E-13  -8.31410581022599E-19   3.47461097472717E-13
      6.06898972772490E-15  -1.00000000000000E+00  -1.00000000000000E+00   0.00000000000000E+00   0.00000000000000E+00
     -1.09060321839105E-21  -3.47461964109659E-13  -3.47461965200262E-13  -4.11054716964272E-15   0.00000000000000E+00
      0.00000000000000E+00   0.00000000000000E+00   0.00000000000000E+00  -6.81733097225291E-26   8.67727614180102E-19
      8.67727546006792E-19  -2.56319111333357E-15
      6.64980163169205E-02
      8.33754959207699E-01   8.33754959207699E-01   0.00000000000000E+00   0.00000000000000E+00   2.59105424570733E-36
     -2.59105424570733E-36   0.00000000000000E+00   5.68967396221296E-16   0.00000000000000E+00   0.00000000000000E+00
      0.00000000000000E+00   0.00000000000000E+00   3.47086835916460E-13  -6.28647773768166E-18   3.47080549438722E-13
      6.08496388526127E-15  -1.00000000000000E+00  -1.00000000000000E+00   0.00000000000000E+00   0.00000000000000E+00
     -1.09059130642031E-21  -3.47086872308732E-13  -3.47086873399324E-13  -4.10067448390654E-15   0.00000000000000E+00
      0.00000000000000E+00   0.00000000000000E+00   0.00000000000000E+00  -5.34434747932011E-25   6.32396113576087E-18
      6.32396060132612E-18  -2.55325679757603E-15
      8.61430608856582E-02
      7.84642347785855E-01   7.84642347785855E-01   0.00000000000000E+00   0.00000000000000E+00   2.56548838900188E-36
     -2.56548838900188E-36   0.00000000000000E+00   5.23414879351221E-16   0.00000000000000E+00   0.00000000000000E+00
      0.00000000000000E+00   0.00000000000000E+00   3.46639589734969E-13   1.88866717753656E-20   3.46639608621641E-13
      6.10509748517150E-15  -1.00000000000000E+00  -1.00000000000000E+00   0.00000000000000E+00   0.00000000000000E+00
     -1.09060618319902E-21  -3.46639628888908E-13  -3.46639629979514E-13  -4.08800886053483E-15   0.00000000000000E+00
      0.00000000000000E+00   0.00000000000000E+00   0.00000000000000E+00   3.16170459023718E-26   2.13578408845180E-20
      2.13578725015639E-20  -2.54050350398786E-15
      1.00000000000000E-01
      7.50000000000000E-01   7.50000000000000E-01   0.00000000000000E+00   0.00000000000000E+00   2.54830062606996E-36
     -2.54830062606996E-36   0.00000000000000E+00   4.91450477466194E-16   0.00000000000000E+00   0.00000000000000E+00
      0.00000000000000E+00   0.00000000000000E+00   3.46346326082289E-13   2.70710537886529E-21   3.46346328789395E-13
      6.11908822571406E-15  -1.00000000000000E+00  -1.00000000000000E+00   0.00000000000000E+00   0.00000000000000E+00
     -1.09060673263048E-21  -3.46346364750022E-13  -3.46346365840628E-13  -4.07905586503572E-15   0.00000000000000E+00
      0.00000000000000E+00   0.00000000000000E+00   0.00000000000000E+00  -2.29857945929039E-26   3.70512569670540E-20
      3.70512339812594E-20  -2.53148283814454E-15
      1.24752756156610E-01
      6.88118109608476E-01   6.88118109608476E-01   0.00000000000000E+00   0.00000000000000E+00   2.51421458813630E-36
     -2.51421458813630E-36   0.00000000000000E+00   4.34692392572839E-16   0.00000000000000E+00   0.00000000000000E+00
      0.00000000000000E+00   0.00000000000000E+00   3.45866537951344E-13   8.32476435420291E-21   3.45866546276109E-13
      6.14365066520730E-15  -1.00000000000000E+00  -1.00000000000000E+00   0.00000000000000E+00   0.00000000000000E+00
     -1.09060774187860E-21  -3.45866577592471E-13  -3.45866578683079E-13  -4.06302431106316E-15   0.00000000000000E+00
      0.00000000000000E+00   0.00000000000000E+00   0.00000000000000E+00  -5.71614066836296E-27   3.24069752361722E-20
      3.24069695200315E-20  -2.51531874671697E-15
      1.55941228913938E-01
      6.10146927715156E-01   6.10146927715156E-01   0.00000000000000E+00   0.00000000000000E+00   2.52310088263150E-36
     -2.52310088263150E-36   0.00000000000000E+00   3.63785031416088E-16   0.00000000000000E+00   0.00000000000000E+00
      0.00000000000000E+00   0.00000000000000E+00   3.45333017907184E-13   8.48519483742257E-21   3.45333026392379E-13
      6.17383257332969E-15  -1.00000000000000E+00  -1.00000000000000E+00   0.00000000000000E+00   0.00000000000000E+00
     -1.09060906910477E-21  -3.45333059937667E-13  -3.45333061028276E-13  -4.04275521682079E-15   0.00000000000000E+00
      0.00000000000000E+00   0.00000000000000E+00   0.00000000000000E+00  -2.63996687636249E-27   3.46358993492212E-20
      3.46358967092544E-20  -2.49486238792499E-15
      1.95238704588171E-01
      5.11903238529573E-01   5.11903238529573E-01   0.00000000000000E+00   0.00000000000000E+00   2.51882464396701E-36
     -2.51882464396701E-36   0.00000000000000E+00   2.75364454529784E-16   0.00000000000000E+00   0.00000000000000E+00
      0.00000000000000E+00   0.00000000000000E+00   3.44740989144544E-13  -7.17032449820295E-21   3.44740981974220E-13
      6.21069622128431E-15  -1.00000000000000E+00  -1.00000000000000E+00   0.00000000000000E+00   0.00000000000000E+00
     -1.09061060151794E-21  -3.44741035736167E-13  -3.44741036826777E-13  -4.01710940513863E-15   0.00000000000000E+00
      0.00000000000000E+00   0.00000000000000E+00   0.00000000000000E+00   2.66174292279945E-26   5.48525303308932E-20
      5.48525569483224E-20  -2.46895127067547E-15
      2.00000000000000E-01
      5.00000000000000E-01   5.00000000000000E-01   0.00000000000000E+00   0.00000000000000E+00   2.55692168945522E-36
     -2.55692168945522E-36   0.00000000000000E+00   2.64718180448690E-16   0.00000000000000E+00   0.00000000000000E+00
      0.00000000000000E+00   0.00000000000000E+00   3.44673075646309E-13  -4.49765193891409E-19   3.44672625881116E-13
      6.21507806004993E-15  -1.00000000000000E+00  -1.00000000000000E+00   0.00000000000000E+00   0.00000000000000E+00
     -1.09061053188621E-21  -3.44673122267487E-13  -3.44673123358098E-13  -4.01399427163080E-15   0.00000000000000E+00
      0.00000000000000E+00   0.00000000000000E+00   0.00000000000000E+00  -1.09922802024917E-26   4.97476993321395E-19
      4.97476982329115E-19  -2.46580196886782E-15
      2.49514819349534E-01
      3.76212951626165E-01   3.76212951626165E-01   0.00000000000000E+00   0.00000000000000E+00   2.53003568452210E-36
     -2.53003568452210E-36   0.00000000000000E+00   1.54804235083716E-16   0.00000000000000E+00   0.00000000000000E+00
      0.00000000000000E+00   0.00000000000000E+00   3.43981892155904E-13  -7.29052487255698E-19   3.43981163103417E-13
      6.25962767099381E-15  -1.00000000000000E+00  -1.00000000000000E+00   0.00000000000000E+00   0.00000000000000E+00
     -1.09061278667711E-21  -3.43981951330477E-13  -3.43981952421090E-13  -3.98150091037930E-15   0.00000000000000E+00
      0.00000000000000E+00   0.00000000000000E+00   0.00000000000000E+00  -6.81529259678785E-26   7.89317741320805E-19
      7.89317673167879E-19  -2.43293099569822E-15
      3.00000000000000E-01
      2.50000000000000E-01   2.50000000000000E-01   0.00000000000000E+00   0.00000000000000E+00   2.53206559914626E-36
     -2.53206559914626E-36   0.00000000000000E+00   4.41295729350515E-17   0.00000000000000E+00   0.00000000000000E+00
      0.00000000000000E+00   0.00000000000000E+00   3.43260883553158E-13  -7.73917160103827E-19   3.43260109635998E-13
      6.30326875355170E-15  -1.00000000000000E+00  -1.00000000000000E+00   0.00000000000000E+00   0.00000000000000E+00
     -1.09061486285644E-21  -3.43260981035006E-13  -3.43260982125621E-13  -3.94819330276889E-15   0.00000000000000E+00
      0.00000000000000E+00   0.00000000000000E+00   0.00000000000000E+00   1.87600083076356E-26   8.72489604055017E-19
      8.72489622815026E-19  -2.39920502371786E-15
      3.62388672380413E-01
      9.40283190489679E-02   9.40283190489679E-02   0.00000000000000E+00   0.00000000000000E+00   2.56652809730593E-36
     -2.56652809730593E-36   0.00000000000000E+00  -9.09128088893288E-17   0.00000000000000E+00   0.00000000000000E+00
      0.00000000000000E+00   0.00000000000000E+00   3.42369108900389E-13   6.47264792378821E-21   3.42369115373037E-13
      6.35497214321446E-15  -1.00000000000000E+00  -1.00000000000000E+00   0.00000000000000E+00   0.00000000000000E+00
     -1.09061743727348E-21  -3.42369387984111E-13  -3.42369389074729E-13  -3.90679546958424E-15   0.00000000000000E+00
      0.00000000000000E+00   0.00000000000000E+00   0.00000000000000E+00   1.00578485963965E-26   2.73701682243488E-19
      2.73701692301337E-19  -2.35726386474087E-15
      4.00000000000000E-01
      0.00000000000000E+00   0.00000000000000E+00   0.00000000000000E+00   0.00000000000000E+00   2.51596461811782E-36
     -2.51596461811782E-36   0.00000000000000E+00  -1.71494255036670E-16   0.00000000000000E+00   0.00000000000000E+00
      0.00000000000000E+00   0.00000000000000E+00   3.41892258850987E-13  -3.87584668575629E-20   3.41892220092520E-13
      6.38506397501648E-15  -1.00000000000000E+00  -1.00000000000000E+00   0.00000000000000E+00   0.00000000000000E+00
     -1.09055576374647E-21  -3.41892912989184E-13  -3.41892914079740E-13  -3.88171578263541E-15   0.00000000000000E+00
      0.00000000000000E+00   0.00000000000000E+00   0.00000000000000E+00   1.26889688633371E-26   6.93987206255194E-19
      6.93987218944162E-19  -2.33185393734438E-15
      4.77361953751712E-01
     -1.93404884379280E-01  -1.93404884379280E-01   0.00000000000000E+00   0.00000000000000E+00   2.53761109584688E-36
     -2.53761109584688E-36   0.00000000000000E+00  -3.35525748297828E-16   0.00000000000000E+00   0.00000000000000E+00
      0.00000000000000E+00   0.00000000000000E+00   3.41112885218176E-13   3.25317859615833E-20   3.41112917749962E-13
      6.44470742629993E-15  -1.00000000000000E+00  -1.00000000000000E+00   0.00000000000000E+00   0.00000000000000E+00
     -1.09062207911438E-21  -3.41118194995364E-13  -3.41118196085986E-13  -3.82984561082123E-15   0.00000000000000E+00
      0.00000000000000E+00   0.00000000000000E+00   0.00000000000000E+00  -1.96728097230092E-26   5.27833604364572E-18
      5.27833602397291E-18  -2.27933606718087E-15
      5.00000000000000E-01
     -2.50000000000000E-01  -2.50000000000000E-01   0.00000000000000E+00   0.00000000000000E+00   2.57192157228538E-36
     -2.57192157228538E-36   0.00000000000000E+00  -3.83136634503241E-16   0.00000000000000E+00   0.00000000000000E+00
      0.00000000000000E+00   0.00000000000000E+00   3.40917106472065E-13  -1.87325599215999E-20   3.40917087739506E-13
      6.46164469400208E-15  -1.00000000000000E+00  -1.00000000000000E+00   0.00000000000000E+00   0.00000000000000E+00
     -1.09062305189854E-21  -3.40927491608444E-13  -3.40927492699067E-13  -3.81459522387506E-15   0.00000000000000E+00
      0.00000000000000E+00   0.00000000000000E+00   0.00000000000000E+00   3.15134116128575E-26   1.04049595295146E-17
      1.04049595610280E-17  -2.26391283562377E-15
      5.47964411326061E-01
     -3.69911028315153E-01  -3.69911028315153E-01   0.00000000000000E+00   0.00000000000000E+00   2.54254007460048E-36
     -2.54254007460048E-36   0.00000000000000E+00  -4.83497389106370E-16   0.00000000000000E+00   0.00000000000000E+00
      0.00000000000000E+00   0.00000000000000E+00   3.40507706023545E-13   9.99008541356601E-20   3.40507805924399E-13
      6.49684016558445E-15  -1.00000000000000E+00  -1.00000000000000E+00   0.00000000000000E+00   0.00000000000000E+00
     -1.09062492742311E-21  -3.40553539863635E-13  -3.40553540954260E-13  -3.78217560201180E-15   0.00000000000000E+00
      0.00000000000000E+00   0.00000000000000E+00   0.00000000000000E+00   3.81037391853644E-26   4.57350298230984E-17
      4.57350298612021E-17  -2.23116717446628E-15
      6.00000000000000E-01
     -5.00000000000000E-01  -5.00000000000000E-01   0.00000000000000E+00   0.00000000000000E+00   2.51058152406654E-36
     -2.51058152406654E-36   0.00000000000000E+00  -5.91646750788889E-16   0.00000000000000E+00   0.00000000000000E+00
      0.00000000000000E+00   0.00000000000000E+00   3.40054356621434E-13   2.44526228971841E-20   3.40054381074057E-13
      6.53404104589174E-15  -1.00000000000000E+00  -1.00000000000000E+00   0.00000000000000E+00   0.00000000000000E+00
     -1.09062705077897E-21  -3.40303304907976E-13  -3.40303305998603E-13  -3.74683716817438E-15   0.00000000000000E+00
      0.00000000000000E+00   0.00000000000000E+00   0.00000000000000E+00   9.68232289420197E-27   2.48924924535873E-16
      2.48924924545556E-16  -2.19555712692846E-15
      6.59475870044316E-01
     -6.48689675110790E-01  -6.48689675110790E-01   0.00000000000000E+00   0.00000000000000E+00   2.49462848063768E-36
     -2.49462848063768E-36   0.00000000000000E+00  -7.14394790869295E-16   0.00000000000000E+00   0.00000000000000E+00
      0.00000000000000E+00   0.00000000000000E+00   3.39559082976022E-13  -7.53885121944758E-20   3.39559007587510E-13
      6.57540594287159E-15  -1.00000000000000E+00  -1.00000000000000E+00   0.00000000000000E+00   0.00000000000000E+00
     -1.09062949798419E-21  -3.41443003655967E-13  -3.41443004746596E-13  -3.70623121236686E-15   0.00000000000000E+00
      0.00000000000000E+00   0.00000000000000E+00   0.00000000000000E+00   7.02770455720134E-27   1.88399715907965E-15
      1.88399715908668E-15  -2.15477993963544E-15
      7.00000000000000E-01
     -7.50000000000000E-01  -7.50000000000000E-01   0.00000000000000E+00   0.00000000000000E+00   4.02412993705502E-36
     -4.02412993705502E-36   0.00000000000000E+00  -7.97520656317019E-16   0.00000000000000E+00   0.00000000000000E+00
      0.00000000000000E+00   0.00000000000000E+00   3.39272510220054E-13  -7.33608718918240E-20   3.39272436859182E-13
      6.60292579258741E-15  -1.00000000000000E+00  -1.00000000000000E+00   0.00000000000000E+00   0.00000000000000E+00
     -1.09063088073034E-21  -3.47141539756190E-13  -3.47141540846821E-13  -3.67843355260503E-15   0.00000000000000E+00
      0.00000000000000E+00   0.00000000000000E+00   0.00000000000000E+00  -1.49489446811844E-26   7.86910398765374E-15
      7.86910398763879E-15  -2.12697158366535E-15
      7.73750078854952E-01
     -9.34375197137379E-01  -9.34375197137379E-01   0.00000000000000E+00   0.00000000000000E+00   2.54181165117310E-36
     -2.54181165117310E-36   0.00000000000000E+00  -9.47757630005676E-16   0.00000000000000E+00   0.00000000000000E+00
      0.00000000000000E+00   0.00000000000000E+00   3.38938829136040E-13   8.32023598665047E-20   3.38938912338399E-13
      6.65171429141376E-15  -1.00000000000000E+00  -1.00000000000000E+00   0.00000000000000E+00   0.00000000000000E+00
     -1.09063407225347E-21  -4.56377510156352E-13  -4.56377511246986E-13  -3.62758117311272E-15   0.00000000000000E+00
      0.00000000000000E+00   0.00000000000000E+00   0.00000000000000E+00  -1.20527701162042E-26   1.17438598908599E-13
      1.17438598908587E-13  -2.07637548829534E-15
      8.00000000000000E-01
     -1.00000000000000E+00  -1.00000000000000E+00   0.00000000000000E+00   0.00000000000000E+00   2.53151061565898E-36
     -2.53151061565898E-36   0.00000000000000E+00  -1.00090918636918E-15   0.00000000000000E+00   0.00000000000000E+00
      0.00000000000000E+00   0.00000000000000E+00   3.38894607922366E-13  -1.90788434288948E-19   3.38894417133932E-13
      6.66870389611861E-15  -1.00000000000000E+00  -1.00000000000000E+00   0.00000000000000E+00   0.00000000000000E+00
     -1.09063529843122E-21  -6.55926386531024E-13  -6.55926387621659E-13  -3.60940328140236E-15   0.00000000000000E+00
      0.00000000000000E+00   0.00000000000000E+00   0.00000000000000E+00  -9.73332041590623E-27   3.17031970487738E-13
      3.17031970487729E-13  -2.05839142834707E-15
      8.91450097780140E-01
     -1.22862524445035E+00  -1.22862524445035E+00   0.00000000000000E+00   0.00000000000000E+00   2.51957806441043E-36
     -2.51957806441043E-36   0.00000000000000E+00  -1.18485506358887E-15   0.00000000000000E+00   0.00000000000000E+00
      0.00000000000000E+00   0.00000000000000E+00   3.39111221301281E-13   1.70882764991752E-19   3.39111392184046E-13
      6.72665097857401E-15  -1.00000000000000E+00  -1.00000000000000E+00   0.00000000000000E+00   0.00000000000000E+00
     -1.09063901806367E-21  -1.16596115434091E-11  -1.16596115444998E-11  -3.54579071392352E-15   0.00000000000000E+00
      0.00000000000000E+00   0.00000000000000E+00   0.00000000000000E+00   3.12023075930005E-27   1.13205001523157E-11
      1.13205001523157E-11  -1.99600520106161E-15
      9.00000000000000E-01
     -1.25000000000000E+00  -1.25000000000000E+00   0.00000000000000E+00   0.00000000000000E+00   2.56350424588189E-36
     -2.56350424588189E-36   0.00000000000000E+00  -1.20196685248052E-15   0.00000000000000E+00   0.00000000000000E+00
      0.00000000000000E+00   0.00000000000000E+00   3.39161100151110E-13   3.62972054663809E-19   3.39161463123165E-13
      6.73199547537433E-15  -1.00000000000000E+00  -1.00000000000000E+00   0.00000000000000E+00   0.00000000000000E+00
     -1.09063929978378E-21  -1.62765402924909E-11  -1.62765402935816E-11  -3.53982321883453E-15   0.00000000000000E+00
      0.00000000000000E+00   0.00000000000000E+00   0.00000000000000E+00   2.46864516242657E-26   1.59373788304584E-11
      1.59373788304584E-11  -1.99020540405927E-15
      1.00000000000000E+00
     -1.50000000000000E+00  -1.50000000000000E+00   0.00000000000000E+00   0.00000000000000E+00   2.55144190829014E-36
     -2.55144190829014E-36   0.00000000000000E+00  -1.40135797072556E-15   0.00000000000000E+00   0.00000000000000E+00
      0.00000000000000E+00   0.00000000000000E+00   3.40384351701745E-13   4.61628248923637E-19   3.40384813329993E-13
      6.79427226638378E-15  -1.00000000000000E+00  -1.00000000000000E+00   0.00000000000000E+00   0.00000000000000E+00
     -1.09064358965480E-21  -9.20647385452133E-10  -9.20647385453223E-10  -3.46982029111273E-15   0.00000000000000E+00
      0.00000000000000E+00   0.00000000000000E+00   0.00000000000000E+00  -1.24684679736546E-26   9.20307000639894E-10
      9.20307000639894E-10  -1.92309400454549E-15
}
