DF-ISE text

Info {
  version   = 1.0
  type      = xyplot
  datasets  = [
    "time"
    "gate OuterVoltage" "gate InnerVoltage" "gate QuasiFermiPotential" "gate DisplacementCurrent" "gate eCurrent"
    "gate hCurrent" "gate TotalCurrent" "gate Charge" "substrate OuterVoltage" "substrate InnerVoltage"
    "substrate QuasiFermiPotential" "substrate DisplacementCurrent" "substrate eCurrent" "substrate hCurrent" "substrate TotalCurrent"
    "substrate Charge" "drain OuterVoltage" "drain InnerVoltage" "drain QuasiFermiPotential" "drain DisplacementCurrent"
    "drain eCurrent" "drain hCurrent" "drain TotalCurrent" "drain Charge" "source OuterVoltage"
    "source InnerVoltage" "source QuasiFermiPotential" "source DisplacementCurrent" "source eCurrent" "source hCurrent"
    "source TotalCurrent" "source Charge" ]
  functions = [
    Time
    OuterVoltage InnerVoltage QuasiFermiPotential DisplacementCurrent eCurrent
    hCurrent TotalCurrent Charge OuterVoltage InnerVoltage
    QuasiFermiPotential DisplacementCurrent eCurrent hCurrent TotalCurrent
    Charge OuterVoltage InnerVoltage QuasiFermiPotential DisplacementCurrent
    eCurrent hCurrent TotalCurrent Charge OuterVoltage
    InnerVoltage QuasiFermiPotential DisplacementCurrent eCurrent hCurrent
    TotalCurrent Charge ]
}

Data {
      0.00000000000000E+00
      1.00000000000000E+00   1.00000000000000E+00   0.00000000000000E+00   0.00000000000000E+00   7.53052072316989E-36
     -7.53052072316989E-36   0.00000000000000E+00   5.85377125811808E-16   0.00000000000000E+00   0.00000000000000E+00
      0.00000000000000E+00   0.00000000000000E+00   7.58363305366408E-15  -9.10785213439299E-20   7.58354197514274E-15
      2.24131224137385E-15  -1.00000000000000E+00  -1.00000000000000E+00   0.00000000000000E+00   0.00000000000000E+00
     -1.86667952758024E-21  -7.58366807414759E-15  -7.58366994082712E-15  -1.76573213503164E-15   0.00000000000000E+00
      0.00000000000000E+00   0.00000000000000E+00   0.00000000000000E+00   2.38028796662299E-28   1.27965684118684E-19
      1.27965684356712E-19  -1.06095723215401E-15
      1.00000000000000E-03
      9.97500000000000E-01   9.97500000000000E-01   0.00000000000000E+00   0.00000000000000E+00   7.53300450827789E-36
     -7.53300450827789E-36   0.00000000000000E+00   5.81486214935656E-16   0.00000000000000E+00   0.00000000000000E+00
      0.00000000000000E+00   0.00000000000000E+00   7.58103631087142E-15   3.60304858386034E-20   7.58107234135725E-15
      2.24405907926114E-15  -1.00000000000000E+00  -1.00000000000000E+00   0.00000000000000E+00   0.00000000000000E+00
     -1.86667961604891E-21  -7.58108611662688E-15  -7.58108798330650E-15  -1.76515356588501E-15   0.00000000000000E+00
      0.00000000000000E+00   0.00000000000000E+00   0.00000000000000E+00  -2.26202780540619E-28   1.56419494596271E-20
      1.56419492334243E-20  -1.06039172831177E-15
      2.28000000000000E-03
      9.94300000000000E-01   9.94300000000000E-01   0.00000000000000E+00   0.00000000000000E+00   7.55603313495494E-36
     -7.55603313495494E-36   0.00000000000000E+00   5.76511748668719E-16   0.00000000000000E+00   0.00000000000000E+00
      0.00000000000000E+00   0.00000000000000E+00   7.57771809147499E-15   6.18877039375858E-20   7.57777997917893E-15
      2.24756865897878E-15  -1.00000000000000E+00  -1.00000000000000E+00   0.00000000000000E+00   0.00000000000000E+00
     -1.86667971362653E-21  -7.57779264918932E-15  -7.57779451586904E-15  -1.76441277943314E-15   0.00000000000000E+00
      0.00000000000000E+00   0.00000000000000E+00   0.00000000000000E+00  -1.34201209773897E-28   1.45366902165327E-20
      1.45366900823315E-20  -1.05966762821436E-15
      3.91840000000000E-03
      9.90204000000000E-01   9.90204000000000E-01   0.00000000000000E+00   0.00000000000000E+00   7.54512638660087E-36
     -7.54512638660087E-36   0.00000000000000E+00   5.70154128994714E-16   0.00000000000000E+00   0.00000000000000E+00
      0.00000000000000E+00   0.00000000000000E+00   7.57348180355432E-15   4.05063630071458E-20   7.57352230991733E-15
      2.25205044969330E-15  -1.00000000000000E+00  -1.00000000000000E+00   0.00000000000000E+00   0.00000000000000E+00
     -1.86667984406974E-21  -7.57361055744446E-15  -7.57361242412431E-15  -1.76346421620735E-15   0.00000000000000E+00
      0.00000000000000E+00   0.00000000000000E+00   0.00000000000000E+00  -7.77294980830910E-28   9.01142077842708E-20
      9.01142070069759E-20  -1.05874036248067E-15
      6.01555200000000E-03
      9.84961120000000E-01   9.84961120000000E-01   0.00000000000000E+00   0.00000000000000E+00   7.52541546601861E-36
     -7.52541546601861E-36   0.00000000000000E+00   5.62032327409818E-16   0.00000000000000E+00   0.00000000000000E+00
      0.00000000000000E+00   0.00000000000000E+00   7.56807707746517E-15   8.13519829917270E-20   7.56815842944816E-15
      2.25776992392862E-15  -1.00000000000000E+00  -1.00000000000000E+00   0.00000000000000E+00   0.00000000000000E+00
     -1.86668000714640E-21  -7.56823469369518E-15  -7.56823656037519E-15  -1.76224947217297E-15   0.00000000000000E+00
      0.00000000000000E+00   0.00000000000000E+00   0.00000000000000E+00  -3.98240089341656E-28   7.81309274404273E-20
      7.81309270421872E-20  -1.05755277916548E-15
      8.69990656000000E-03
      9.78250233600000E-01   9.78250233600000E-01   0.00000000000000E+00   0.00000000000000E+00   7.54098882814685E-36
     -7.54098882814685E-36   0.00000000000000E+00   5.51662685976071E-16   0.00000000000000E+00   0.00000000000000E+00
      0.00000000000000E+00   0.00000000000000E+00   7.56118735915033E-15  -9.38439603247077E-20   7.56109351519000E-15
      2.26506251629160E-15  -1.00000000000000E+00  -1.00000000000000E+00   0.00000000000000E+00   0.00000000000000E+00
     -1.86668021706200E-21  -7.56126435199495E-15  -7.56126621867517E-15  -1.76069364679890E-15   0.00000000000000E+00
      0.00000000000000E+00   0.00000000000000E+00   0.00000000000000E+00   5.48098326987248E-28   1.72703484564466E-19
      1.72703485112564E-19  -1.05603155546877E-15
      1.21358803968000E-02
      9.69660299008000E-01   9.69660299008000E-01   0.00000000000000E+00   0.00000000000000E+00   7.55972692143800E-36
     -7.55972692143800E-36   0.00000000000000E+00   5.38432836452620E-16   0.00000000000000E+00   0.00000000000000E+00
      0.00000000000000E+00   0.00000000000000E+00   7.55240815428946E-15  -1.07952014325323E-20   7.55239735908803E-15
      2.27435036147787E-15  -1.00000000000000E+00  -1.00000000000000E+00   0.00000000000000E+00   0.00000000000000E+00
     -1.86668048500331E-21  -7.55247382150916E-15  -7.55247568818964E-15  -1.75870063398021E-15   0.00000000000000E+00
      0.00000000000000E+00   0.00000000000000E+00   0.00000000000000E+00  -8.69947699357578E-28   7.83291024492395E-20
      7.83291015792918E-20  -1.05408256395027E-15
      1.65339269079040E-02
      9.58665182730240E-01   9.58665182730240E-01   0.00000000000000E+00   0.00000000000000E+00   7.55525142087669E-36
     -7.55525142087669E-36   0.00000000000000E+00   5.21570068533732E-16   0.00000000000000E+00   0.00000000000000E+00
      0.00000000000000E+00   0.00000000000000E+00   7.54123981698941E-15   5.49930349381051E-20   7.54129481002435E-15
      2.28616184570827E-15  -1.00000000000000E+00  -1.00000000000000E+00   0.00000000000000E+00   0.00000000000000E+00
     -1.86668082695106E-21  -7.54132313312231E-15  -7.54132499980314E-15  -1.75614703868352E-15   0.00000000000000E+00
      0.00000000000000E+00   0.00000000000000E+00   0.00000000000000E+00  -1.02778790013879E-28   3.01897788832664E-20
      3.01897787804877E-20  -1.05158487555847E-15
      2.21634264421171E-02
      9.44591433894707E-01   9.44591433894707E-01   0.00000000000000E+00   0.00000000000000E+00   7.51753581171227E-36
     -7.51753581171227E-36   0.00000000000000E+00   5.00103746960542E-16   0.00000000000000E+00   0.00000000000000E+00
      0.00000000000000E+00   0.00000000000000E+00   7.52704926514106E-15  -5.80999702863382E-20   7.52699116517078E-15
      2.30115353249484E-15  -1.00000000000000E+00  -1.00000000000000E+00   0.00000000000000E+00   0.00000000000000E+00
     -1.86668126265779E-21  -7.52709066690752E-15  -7.52709253358878E-15  -1.75287430110480E-15   0.00000000000000E+00
      0.00000000000000E+00   0.00000000000000E+00   0.00000000000000E+00   7.12984828941611E-28   1.01368417286431E-19
      1.01368417999415E-19  -1.04838297835058E-15
      2.93691858459099E-02
      9.26577035385225E-01   9.26577035385225E-01   0.00000000000000E+00   0.00000000000000E+00   7.45970585393142E-36
     -7.45970585393142E-36   0.00000000000000E+00   4.72821991041400E-16   0.00000000000000E+00   0.00000000000000E+00
      0.00000000000000E+00   0.00000000000000E+00   7.50903692459535E-15  -3.75786332684544E-19   7.50866113826266E-15
      2.32013313456916E-15  -1.00000000000000E+00  -1.00000000000000E+00   0.00000000000000E+00   0.00000000000000E+00
     -1.86668181338688E-21  -7.50914594619139E-15  -7.50914781287320E-15  -1.74867847444980E-15   0.00000000000000E+00
      0.00000000000000E+00   0.00000000000000E+00   0.00000000000000E+00  -1.65633713460178E-28   4.86674610686736E-19
      4.86674610521102E-19  -1.04427665116075E-15
      3.85925578827647E-02
      9.03518605293088E-01   9.03518605293088E-01   0.00000000000000E+00   0.00000000000000E+00   7.54374017830701E-36
     -7.54374017830701E-36   0.00000000000000E+00   4.38223972380327E-16   0.00000000000000E+00   0.00000000000000E+00
      0.00000000000000E+00   0.00000000000000E+00   7.48618125616376E-15  -3.27078699900949E-18   7.48291046916476E-15
      2.34408069183485E-15  -1.00000000000000E+00  -1.00000000000000E+00   0.00000000000000E+00   0.00000000000000E+00
     -1.86668249717416E-21  -7.48623364773866E-15  -7.48623551442116E-15  -1.74329692046050E-15   0.00000000000000E+00
      0.00000000000000E+00   0.00000000000000E+00   0.00000000000000E+00  -2.29837112342046E-28   3.32504525659373E-18
      3.32504525636390E-18  -1.03900774375468E-15
      5.03984740899388E-02
      8.74003814775153E-01   8.74003814775153E-01   0.00000000000000E+00   0.00000000000000E+00   7.42192765252539E-36
     -7.42192765252539E-36   0.00000000000000E+00   3.94470946289275E-16   0.00000000000000E+00   0.00000000000000E+00
      0.00000000000000E+00   0.00000000000000E+00   7.45713412181000E-15   6.90326725303378E-20   7.45720315448253E-15
      2.37416286497949E-15  -1.00000000000000E+00  -1.00000000000000E+00   0.00000000000000E+00   0.00000000000000E+00
     -1.86668342259891E-21  -7.45721339866689E-15  -7.45721526535031E-15  -1.73639094467415E-15   0.00000000000000E+00
      0.00000000000000E+00   0.00000000000000E+00   0.00000000000000E+00   5.78596222393634E-28   1.21108671679059E-20
      1.21108677465022E-20  -1.03224286659460E-15
      6.52739285109782E-02
      8.36815178722555E-01   8.36815178722555E-01   0.00000000000000E+00   0.00000000000000E+00   7.44001524578792E-36
     -7.44001524578792E-36   0.00000000000000E+00   3.40194912816669E-16   0.00000000000000E+00   0.00000000000000E+00
      0.00000000000000E+00   0.00000000000000E+00   7.42055405555498E-15   1.50675355050065E-19   7.42070473091003E-15
      2.41115373813822E-15  -1.00000000000000E+00  -1.00000000000000E+00   0.00000000000000E+00   0.00000000000000E+00
     -1.86668453803406E-21  -7.42065783792788E-15  -7.42065970461242E-15  -1.72766187771424E-15   0.00000000000000E+00
      0.00000000000000E+00   0.00000000000000E+00   0.00000000000000E+00  -7.09167425389804E-29  -4.50262975333690E-20
     -4.50262976042857E-20  -1.02368677324064E-15
      8.40170010814878E-02
      7.89957497296280E-01   7.89957497296280E-01   0.00000000000000E+00   0.00000000000000E+00   7.40896359631022E-36
     -7.40896359631022E-36   0.00000000000000E+00   2.73148210113183E-16   0.00000000000000E+00   0.00000000000000E+00
      0.00000000000000E+00   0.00000000000000E+00   7.37389288664613E-15   4.37616517297827E-21   7.37389726281130E-15
      2.45632888252182E-15  -1.00000000000000E+00  -1.00000000000000E+00   0.00000000000000E+00   0.00000000000000E+00
     -1.86668593447752E-21  -7.37396631215616E-15  -7.37396817884209E-15  -1.71662077335992E-15   0.00000000000000E+00
      0.00000000000000E+00   0.00000000000000E+00   0.00000000000000E+00  -7.47319826586354E-28   7.09160315517046E-20
      7.09160308043848E-20  -1.01285631927507E-15
      1.00000000000000E-01
      7.50000000000000E-01   7.50000000000000E-01   0.00000000000000E+00   0.00000000000000E+00   7.39877783206143E-36
     -7.39877783206143E-36   0.00000000000000E+00   2.17127569499656E-16   0.00000000000000E+00   0.00000000000000E+00
      0.00000000000000E+00   0.00000000000000E+00   7.33332410921715E-15   1.70977104253067E-19   7.33349508632140E-15
      2.49362037646736E-15  -1.00000000000000E+00  -1.00000000000000E+00   0.00000000000000E+00   0.00000000000000E+00
     -1.86668709904087E-21  -7.33347622699528E-15  -7.33347809368238E-15  -1.70716939498746E-15   0.00000000000000E+00
      0.00000000000000E+00   0.00000000000000E+00   0.00000000000000E+00  -6.23655900347234E-28  -1.69926384162785E-20
     -1.69926390399344E-20  -1.00357855097955E-15
      1.23616271438842E-01
      6.90959321402895E-01   6.90959321402895E-01   0.00000000000000E+00   0.00000000000000E+00   7.54843216338563E-36
     -7.54843216338563E-36   0.00000000000000E+00   1.36207593524681E-16   0.00000000000000E+00   0.00000000000000E+00
      0.00000000000000E+00   0.00000000000000E+00   7.27214167502708E-15   4.14895080688052E-20   7.27218316453515E-15
      2.54674040215389E-15  -1.00000000000000E+00  -1.00000000000000E+00   0.00000000000000E+00   0.00000000000000E+00
     -1.86668866925646E-21  -7.27225691070148E-15  -7.27225877739015E-15  -1.69314575491673E-15   0.00000000000000E+00
      0.00000000000000E+00   0.00000000000000E+00   0.00000000000000E+00   1.71887603574297E-28   7.56128548135124E-20
      7.56128549854000E-20  -9.89802240761834E-16
      1.53372773451783E-01
      6.16568066370542E-01   6.16568066370542E-01   0.00000000000000E+00   0.00000000000000E+00   7.78533685906450E-36
     -7.78533685906450E-36   0.00000000000000E+00   3.71773447154802E-17   0.00000000000000E+00   0.00000000000000E+00
      0.00000000000000E+00   0.00000000000000E+00   7.19351760386967E-15   3.67695244643889E-20   7.19355437339413E-15
      2.61054102749629E-15  -1.00000000000000E+00  -1.00000000000000E+00   0.00000000000000E+00   0.00000000000000E+00
     -1.86669040948951E-21  -7.19359418443588E-15  -7.19359605112629E-15  -1.67538185301611E-15   0.00000000000000E+00
      0.00000000000000E+00   0.00000000000000E+00   0.00000000000000E+00  -7.71618161245174E-28   4.16777329371550E-20
      4.16777321655369E-20  -9.72336519195650E-16
      1.90865965988089E-01
      5.22835085029777E-01   5.22835085029777E-01   0.00000000000000E+00   0.00000000000000E+00   7.71433293383851E-36
     -7.71433293383851E-36   0.00000000000000E+00  -8.34520219515206E-17   0.00000000000000E+00   0.00000000000000E+00
      0.00000000000000E+00   0.00000000000000E+00   7.09439205227378E-15  -5.59847190577338E-19   7.09383220508320E-15
      2.68648589015961E-15  -1.00000000000000E+00  -1.00000000000000E+00   0.00000000000000E+00   0.00000000000000E+00
     -1.86459548848388E-21  -7.09457660861953E-15  -7.09457847321501E-15  -1.65285997303036E-15   0.00000000000000E+00
      0.00000000000000E+00   0.00000000000000E+00   0.00000000000000E+00   1.90537272052041E-28   7.46268131632162E-19
      7.46268131822699E-19  -9.50173895177733E-16
      2.00000000000000E-01
      5.00000000000000E-01   5.00000000000000E-01   0.00000000000000E+00   0.00000000000000E+00   7.70851783241463E-36
     -7.70851783241463E-36   0.00000000000000E+00  -1.12209858636093E-16   0.00000000000000E+00   0.00000000000000E+00
      0.00000000000000E+00   0.00000000000000E+00   7.07050517683367E-15   5.94918942743242E-20   7.07056466872794E-15
      2.70431131488093E-15  -1.00000000000000E+00  -1.00000000000000E+00   0.00000000000000E+00   0.00000000000000E+00
     -1.86669317298687E-21  -7.07068683943397E-15  -7.07068870612715E-15  -1.64735102270979E-15   0.00000000000000E+00
      0.00000000000000E+00   0.00000000000000E+00   0.00000000000000E+00  -2.92742178195291E-28   1.24037399515390E-19
      1.24037399222648E-19  -9.44750433535052E-16
      2.47241422595745E-01
      3.81896443510637E-01   3.81896443510637E-01   0.00000000000000E+00   0.00000000000000E+00   7.63670832942583E-36
     -7.63670832942583E-36   0.00000000000000E+00  -2.57531701492260E-16   0.00000000000000E+00   0.00000000000000E+00
      0.00000000000000E+00   0.00000000000000E+00   6.94979971671213E-15  -9.30177752022405E-20   6.94970669893692E-15
      2.79282469310263E-15  -1.00000000000000E+00  -1.00000000000000E+00   0.00000000000000E+00   0.00000000000000E+00
     -1.85897265638405E-21  -6.95067182660096E-15  -6.95067368557361E-15  -1.61872896766046E-15   0.00000000000000E+00
      0.00000000000000E+00   0.00000000000000E+00   0.00000000000000E+00   4.51548878844466E-28   9.66986636217897E-19
      9.66986636669446E-19  -9.16564023949905E-16
      3.00000000000000E-01
      2.50000000000000E-01   2.50000000000000E-01   0.00000000000000E+00   0.00000000000000E+00   7.45302574086331E-36
     -7.45302574086331E-36   0.00000000000000E+00  -4.14124322714857E-16   0.00000000000000E+00   0.00000000000000E+00
      0.00000000000000E+00   0.00000000000000E+00   6.82781812641348E-15  -6.46865495449621E-20   6.82775343986394E-15
      2.88549950828991E-15  -1.00000000000000E+00  -1.00000000000000E+00   0.00000000000000E+00   0.00000000000000E+00
     -1.86669836540960E-21  -6.83513828286398E-15  -6.83514014956235E-15  -1.58652535574391E-15   0.00000000000000E+00
      0.00000000000000E+00   0.00000000000000E+00   0.00000000000000E+00   2.87809782506832E-28   7.38670969811188E-18
      7.38670969839969E-18  -8.84849829831135E-16
      3.58579364018724E-01
      1.03551589953189E-01   1.03551589953189E-01   0.00000000000000E+00   0.00000000000000E+00   7.49353700334607E-36
     -7.49353700334607E-36   0.00000000000000E+00  -5.82397477075823E-16   0.00000000000000E+00   0.00000000000000E+00
      0.00000000000000E+00   0.00000000000000E+00   6.71592534915939E-15  -6.04481543195501E-20   6.71586490100507E-15
      2.98230158815260E-15  -1.00000000000000E+00  -1.00000000000000E+00   0.00000000000000E+00   0.00000000000000E+00
     -1.86670172407126E-21  -6.81467813957713E-15  -6.81468000627885E-15  -1.55049948339669E-15   0.00000000000000E+00
      0.00000000000000E+00   0.00000000000000E+00   0.00000000000000E+00   1.30720664559132E-28   9.88151052736389E-17
      9.88151052737696E-17  -8.49404627680092E-16
      4.00000000000000E-01
      0.00000000000000E+00   0.00000000000000E+00   0.00000000000000E+00   0.00000000000000E+00   7.42252364085164E-36
     -7.42252364085164E-36   0.00000000000000E+00  -6.98440578721502E-16   0.00000000000000E+00   0.00000000000000E+00
      0.00000000000000E+00   0.00000000000000E+00   6.65117230859329E-15   3.11073939557891E-20   6.65120341598725E-15
      3.04754324931748E-15  -1.00000000000000E+00  -1.00000000000000E+00   0.00000000000000E+00   0.00000000000000E+00
     -1.86670377393489E-21  -7.35549007813594E-15  -7.35549194483971E-15  -1.52486769956468E-15   0.00000000000000E+00
      0.00000000000000E+00   0.00000000000000E+00   0.00000000000000E+00   8.43540858309154E-28   7.04288528851621E-16
      7.04288528852465E-16  -8.24234971031300E-16
      4.71466824102843E-01
     -1.78667060257109E-01  -1.78667060257109E-01   0.00000000000000E+00   0.00000000000000E+00   7.46073540884767E-36
     -7.46073540884767E-36   0.00000000000000E+00  -8.93926567981057E-16   0.00000000000000E+00   0.00000000000000E+00
      0.00000000000000E+00   0.00000000000000E+00   6.57818057284995E-15   1.71794677839653E-19   6.57835236752779E-15
      3.15499794363280E-15  -1.00000000000000E+00  -1.00000000000000E+00   0.00000000000000E+00   0.00000000000000E+00
     -1.86670713499767E-21  -3.18051204408050E-14  -3.18051223075122E-14  -1.48035639987642E-15   0.00000000000000E+00
      0.00000000000000E+00   0.00000000000000E+00   0.00000000000000E+00   1.72464560702144E-29   2.52267699399843E-14
      2.52267699399843E-14  -7.80714975775319E-16
      5.00000000000000E-01
     -2.50000000000000E-01  -2.50000000000000E-01   0.00000000000000E+00   0.00000000000000E+00   7.48077632315032E-36
     -7.48077632315032E-36   0.00000000000000E+00  -9.70534352171908E-16   0.00000000000000E+00   0.00000000000000E+00
      0.00000000000000E+00   0.00000000000000E+00   6.57053614003510E-15   3.09549664241721E-19   6.57084568969934E-15
      3.19637663691650E-15  -1.00000000000000E+00  -1.00000000000000E+00   0.00000000000000E+00   0.00000000000000E+00
     -1.86659525721033E-21  -1.17904539023282E-13  -1.17904540889878E-13  -1.46248924205469E-15   0.00000000000000E+00
      0.00000000000000E+00   0.00000000000000E+00   0.00000000000000E+00  -3.89396367853901E-28   1.11333695200179E-13
      1.11333695200179E-13  -7.63353042689878E-16
      5.87189525405469E-01
     -4.67973813513672E-01  -4.67973813513672E-01   0.00000000000000E+00   0.00000000000000E+00   3.48156870474995E-36
     -3.48156870474995E-36   0.00000000000000E+00  -1.20036625793215E-15   0.00000000000000E+00   0.00000000000000E+00
      0.00000000000000E+00   0.00000000000000E+00   6.58519473209060E-15  -1.63022464794377E-19   6.58503170962581E-15
      3.31862617570918E-15  -1.00000000000000E+00  -1.00000000000000E+00   0.00000000000000E+00   0.00000000000000E+00
     -1.86671215006923E-21  -1.22316716521792E-11  -1.22316716540459E-11  -1.40757278917107E-15   0.00000000000000E+00
      0.00000000000000E+00   0.00000000000000E+00   0.00000000000000E+00   1.01886155176544E-27   1.22250866223363E-11
      1.22250866223363E-11  -7.10687128605932E-16
      6.00000000000000E-01
     -5.00000000000000E-01  -5.00000000000000E-01   0.00000000000000E+00   0.00000000000000E+00   7.84099878075228E-36
     -7.84099878075228E-36   0.00000000000000E+00  -1.23364893970726E-15   0.00000000000000E+00   0.00000000000000E+00
      0.00000000000000E+00   0.00000000000000E+00   6.58146904934816E-15  -2.16933517146919E-19   6.58125211583101E-15
      3.33615823425411E-15  -1.00000000000000E+00  -1.00000000000000E+00   0.00000000000000E+00   0.00000000000000E+00
     -1.86671267578005E-21  -2.48446897090879E-11  -2.48446897109546E-11  -1.39946509766871E-15   0.00000000000000E+00
      0.00000000000000E+00   0.00000000000000E+00   0.00000000000000E+00   3.81712366739492E-28   2.48381084588387E-11
      2.48381084588387E-11  -7.03044196878150E-16
      6.50000000000000E-01
     -6.25000000000000E-01  -6.25000000000000E-01   0.00000000000000E+00   0.00000000000000E+00   1.23084260973726E-35
     -1.23084260973726E-35   0.00000000000000E+00  -1.36254327936545E-15   0.00000000000000E+00   0.00000000000000E+00
      0.00000000000000E+00   0.00000000000000E+00   6.55577027087013E-15   3.93121575959875E-20   6.55580958302773E-15
      3.40392680730094E-15  -1.00000000000000E+00  -1.00000000000000E+00   0.00000000000000E+00   0.00000000000000E+00
     -1.86671472736942E-21  -4.11524980672493E-10  -4.11524980674360E-10  -1.36772947564585E-15   0.00000000000000E+00
      0.00000000000000E+00   0.00000000000000E+00   0.00000000000000E+00  -2.34483089147650E-28   4.11518424864778E-10
      4.11518424864778E-10  -6.73654052289647E-16
      7.00000000000000E-01
     -7.50000000000000E-01  -7.50000000000000E-01   0.00000000000000E+00   0.00000000000000E+00   1.22975880113236E-35
     -1.22975880113236E-35   0.00000000000000E+00  -1.49058907857361E-15   0.00000000000000E+00   0.00000000000000E+00
      0.00000000000000E+00   0.00000000000000E+00   6.51935525801196E-15  -7.90199777989893E-20   6.51927623803416E-15
      3.47183072276899E-15  -1.00000000000000E+00  -1.00000000000000E+00   0.00000000000000E+00   0.00000000000000E+00
     -1.86671767988574E-21  -7.13192193618676E-09  -7.13192193618863E-09  -1.33585829642918E-15   0.00000000000000E+00
      0.00000000000000E+00   0.00000000000000E+00   0.00000000000000E+00   1.13601317114997E-27   7.13191541691244E-09
      7.13191541691244E-09  -6.45383347766196E-16
      7.60000000000000E-01
     -9.00000000000000E-01  -9.00000000000000E-01   0.00000000000000E+00   0.00000000000000E+00   7.80270788176663E-36
     -7.80270788176663E-36   0.00000000000000E+00  -1.65112426801655E-15   0.00000000000000E+00   0.00000000000000E+00
      0.00000000000000E+00   0.00000000000000E+00   6.42906556669087E-15   1.01339586313192E-18   6.43007896255401E-15
      3.56252997827082E-15  -1.00000000000000E+00  -1.00000000000000E+00   0.00000000000000E+00   0.00000000000000E+00
     -1.86143380814346E-21  -1.71501792743356E-07  -1.71501792743358E-07  -1.29750524319963E-15   0.00000000000000E+00
      0.00000000000000E+00   0.00000000000000E+00   0.00000000000000E+00   2.33102206349001E-26   1.71501786313280E-07
      1.71501786313280E-07  -6.13900467054632E-16
      8.00000000000000E-01
     -1.00000000000000E+00  -1.00000000000000E+00   0.00000000000000E+00   0.00000000000000E+00   7.82959431500138E-36
     -7.82959431500138E-36   0.00000000000000E+00  -1.77229328226114E-15   0.00000000000000E+00   0.00000000000000E+00
      0.00000000000000E+00   0.00000000000000E+00   6.43014552993854E-15  -6.56154027125739E-19   6.42948937591141E-15
      3.63871428602801E-15  -1.00000000000000E+00  -1.00000000000000E+00   0.00000000000000E+00   0.00000000000000E+00
     -1.86680113647662E-21  -7.70415644663271E-07  -7.70415644663273E-07  -1.27203212691821E-15   0.00000000000000E+00
      0.00000000000000E+00   0.00000000000000E+00   0.00000000000000E+00   1.02647839789012E-25   7.70415638233790E-07
      7.70415638233790E-07  -5.94388876848650E-16
      8.35400000000000E-01
     -1.08850000000000E+00  -1.08850000000000E+00   0.00000000000000E+00   0.00000000000000E+00   7.81712176877116E-36
     -7.81712176877116E-36   0.00000000000000E+00  -1.88869396370165E-15   0.00000000000000E+00   0.00000000000000E+00
      0.00000000000000E+00   0.00000000000000E+00   6.47360366581078E-15  -6.80616811975158E-19   6.47292304899880E-15
      3.71605362887120E-15  -1.00000000000000E+00  -1.00000000000000E+00   0.00000000000000E+00   0.00000000000000E+00
     -1.86701154572947E-21  -1.89715187641767E-06  -1.89715187641767E-06  -1.24966645562629E-15   0.00000000000000E+00
      0.00000000000000E+00   0.00000000000000E+00   0.00000000000000E+00   2.55327399438017E-25   1.89715186994476E-06
      1.89715186994476E-06  -5.77693209543259E-16
      8.79296000000000E-01
     -1.19824000000000E+00  -1.19824000000000E+00   0.00000000000000E+00   0.00000000000000E+00   7.69168346844232E-36
     -7.69168346844232E-36   0.00000000000000E+00  -2.04059912672963E-15   0.00000000000000E+00   0.00000000000000E+00
      0.00000000000000E+00   0.00000000000000E+00   6.54866055206001E-15  -5.22778446855143E-19   6.54813777361315E-15
      3.82024095862092E-15  -1.00000000000000E+00  -1.00000000000000E+00   0.00000000000000E+00   0.00000000000000E+00
     -1.86735700405244E-21  -4.14216937533462E-06  -4.14216937533462E-06  -1.22221207506666E-15   0.00000000000000E+00
      0.00000000000000E+00   0.00000000000000E+00   0.00000000000000E+00   5.55909588169783E-25   4.14216936878656E-06
      4.14216936878656E-06  -5.57429756824591E-16
      9.00000000000000E-01
     -1.25000000000000E+00  -1.25000000000000E+00   0.00000000000000E+00   0.00000000000000E+00   7.81620025364766E-36
     -7.81620025364766E-36   0.00000000000000E+00  -2.11426726988705E-15   0.00000000000000E+00   0.00000000000000E+00
      0.00000000000000E+00   0.00000000000000E+00   6.58584338618354E-15  -1.81588761974274E-19   6.58566179742157E-15
      3.87163295341905E-15  -1.00000000000000E+00  -1.00000000000000E+00   0.00000000000000E+00   0.00000000000000E+00
     -1.86756837696461E-21  -5.51755767695663E-06  -5.51755767695663E-06  -1.20937471253924E-15   0.00000000000000E+00
      0.00000000000000E+00   0.00000000000000E+00   0.00000000000000E+00   7.40863242210141E-25   5.51755767037105E-06
      5.51755767037105E-06  -5.47990970992736E-16
      9.54431040000000E-01
     -1.38607760000000E+00  -1.38607760000000E+00   0.00000000000000E+00   0.00000000000000E+00   7.72727757395348E-36
     -7.72727757395348E-36   0.00000000000000E+00  -2.31237724107873E-15   0.00000000000000E+00   0.00000000000000E+00
      0.00000000000000E+00   0.00000000000000E+00   6.68335128870177E-15  -2.66761191541355E-16   6.41659009716041E-15
      4.01179377421860E-15  -1.00000000000000E+00  -1.00000000000000E+00   0.00000000000000E+00   0.00000000000000E+00
     -1.86826173809781E-21  -1.00303433956360E-05  -1.00303433956360E-05  -1.17597444924104E-15   0.00000000000000E+00
      0.00000000000000E+00   0.00000000000000E+00   0.00000000000000E+00   1.34671639652207E-24   1.00303433892194E-05
      1.00303433892194E-05  -5.23442083898803E-16
      1.00000000000000E+00
     -1.50000000000000E+00  -1.50000000000000E+00   0.00000000000000E+00   0.00000000000000E+00   7.33630222377860E-36
     -7.33630222377860E-36   0.00000000000000E+00  -2.48207966841703E-15   0.00000000000000E+00   0.00000000000000E+00
      0.00000000000000E+00   0.00000000000000E+00   6.76468212241058E-15  -2.19380150829269E-17   6.74274410732765E-15
      4.13361497807407E-15  -1.00000000000000E+00  -1.00000000000000E+00   0.00000000000000E+00   0.00000000000000E+00
     -1.86898158889768E-21  -1.47174745272465E-05  -1.47174745272465E-05  -1.14841245803374E-15   0.00000000000000E+00
      0.00000000000000E+00   0.00000000000000E+00   0.00000000000000E+00   1.97647104571218E-24   1.47174745205038E-05
      1.47174745205038E-05  -5.03122851623316E-16
}
