DF-ISE text

Info {
  version   = 1.0
  type      = xyplot
  datasets  = [
    "time"
    "gate OuterVoltage" "gate InnerVoltage" "gate QuasiFermiPotential" "gate DisplacementCurrent" "gate eCurrent"
    "gate hCurrent" "gate TotalCurrent" "gate Charge" "substrate OuterVoltage" "substrate InnerVoltage"
    "substrate QuasiFermiPotential" "substrate DisplacementCurrent" "substrate eCurrent" "substrate hCurrent" "substrate TotalCurrent"
    "substrate Charge" "drain OuterVoltage" "drain InnerVoltage" "drain QuasiFermiPotential" "drain DisplacementCurrent"
    "drain eCurrent" "drain hCurrent" "drain TotalCurrent" "drain Charge" "source OuterVoltage"
    "source InnerVoltage" "source QuasiFermiPotential" "source DisplacementCurrent" "source eCurrent" "source hCurrent"
    "source TotalCurrent" "source Charge" ]
  functions = [
    Time
    OuterVoltage InnerVoltage QuasiFermiPotential DisplacementCurrent eCurrent
    hCurrent TotalCurrent Charge OuterVoltage InnerVoltage
    QuasiFermiPotential DisplacementCurrent eCurrent hCurrent TotalCurrent
    Charge OuterVoltage InnerVoltage QuasiFermiPotential DisplacementCurrent
    eCurrent hCurrent TotalCurrent Charge OuterVoltage
    InnerVoltage QuasiFermiPotential DisplacementCurrent eCurrent hCurrent
    TotalCurrent Charge ]
}

Data {
      0.00000000000000E+00
      1.00000000000000E+00   1.00000000000000E+00   0.00000000000000E+00   0.00000000000000E+00   2.34776930909871E-37
     -2.34776930909871E-37   0.00000000000000E+00   1.01979585605406E-15   0.00000000000000E+00   0.00000000000000E+00
      0.00000000000000E+00   0.00000000000000E+00   1.12906949952577E-12   2.26673529173857E-19   1.12906972619930E-12
      8.35662714857122E-15  -1.00000000000000E+00  -1.00000000000000E+00   0.00000000000000E+00   0.00000000000000E+00
     -8.42856570926004E-22  -2.36481858595710E-04  -2.36481858595710E-04  -5.75127986954835E-15   0.00000000000000E+00
      0.00000000000000E+00   0.00000000000000E+00   0.00000000000000E+00   3.40185806195788E-23   2.36481857466640E-04
      2.36481857466640E-04  -3.62514313507692E-15
      1.00000000000000E-03
      9.97500000000000E-01   9.97500000000000E-01   0.00000000000000E+00   0.00000000000000E+00   2.39651408197591E-37
     -2.39651408197591E-37   0.00000000000000E+00   1.01814366469531E-15   0.00000000000000E+00   0.00000000000000E+00
      0.00000000000000E+00   0.00000000000000E+00   1.12914212277931E-12   2.37073726619212E-19   1.12914235985303E-12
      8.35668159900485E-15  -1.00000000000000E+00  -1.00000000000000E+00   0.00000000000000E+00   0.00000000000000E+00
     -8.42939340395066E-22  -2.37019765020030E-04  -2.37019765020030E-04  -5.75025928205945E-15   0.00000000000000E+00
      0.00000000000000E+00   0.00000000000000E+00   0.00000000000000E+00   3.41014277958706E-23   2.37019763890887E-04
      2.37019763890887E-04  -3.62456598164073E-15
      2.28000000000000E-03
      9.94300000000000E-01   9.94300000000000E-01   0.00000000000000E+00   0.00000000000000E+00   2.00251498437763E-36
     -2.00251498437763E-36   0.00000000000000E+00   1.01602864920251E-15   0.00000000000000E+00   0.00000000000000E+00
      0.00000000000000E+00   0.00000000000000E+00   1.12923514183620E-12  -6.84087006460475E-14   1.06082644119015E-12
      8.35675131288970E-15  -1.00000000000000E+00  -1.00000000000000E+00   0.00000000000000E+00   0.00000000000000E+00
     -8.37486855553001E-22  -2.37709253528821E-04  -2.37709253528821E-04  -5.74895218119817E-15   0.00000000000000E+00
      0.00000000000000E+00   0.00000000000000E+00   0.00000000000000E+00   3.66665384767714E-23   2.37709252467994E-04
      2.37709252467994E-04  -3.62382778089406E-15
      3.94400000000000E-03
      9.90140000000000E-01   9.90140000000000E-01   0.00000000000000E+00   0.00000000000000E+00   5.18352032609258E-36
     -5.18352032609258E-36   0.00000000000000E+00   1.01327878402149E-15   0.00000000000000E+00   0.00000000000000E+00
      0.00000000000000E+00   0.00000000000000E+00   1.12935617024377E-12  -1.92927129010276E-13   9.36429041233496E-13
      8.35684197684544E-15  -1.00000000000000E+00  -1.00000000000000E+00   0.00000000000000E+00   0.00000000000000E+00
     -8.27829132131024E-22  -2.38607206098850E-04  -2.38607206098850E-04  -5.74725171215567E-15   0.00000000000000E+00
      0.00000000000000E+00   0.00000000000000E+00   0.00000000000000E+00   4.12346580195357E-23   2.38607205162420E-04
      2.38607205162420E-04  -3.62286904871126E-15
      6.10720000000000E-03
      9.84732000000000E-01   9.84732000000000E-01   0.00000000000000E+00   0.00000000000000E+00   1.42579152440837E-35
     -1.42579152440837E-35   0.00000000000000E+00   1.00970339889043E-15   0.00000000000000E+00   0.00000000000000E+00
      0.00000000000000E+00   0.00000000000000E+00   1.12951368763820E-12  -5.50950973852123E-13   5.78562713786081E-13
      8.35695992147243E-15  -1.00000000000000E+00  -1.00000000000000E+00   0.00000000000000E+00   0.00000000000000E+00
     -8.00703009392869E-22  -2.39777272908845E-04  -2.39777272908845E-04  -5.74503905840577E-15   0.00000000000000E+00
      0.00000000000000E+00   0.00000000000000E+00   0.00000000000000E+00   5.41460044835421E-23   2.39777272330282E-04
      2.39777272330282E-04  -3.62162426195709E-15
      8.91936000000000E-03
      9.77701600000000E-01   9.77701600000000E-01   0.00000000000000E+00   0.00000000000000E+00   2.38500455697048E-37
     -2.38500455697048E-37   0.00000000000000E+00   1.00505445139588E-15   0.00000000000000E+00   0.00000000000000E+00
      0.00000000000000E+00   0.00000000000000E+00   1.12971875682033E-12  -4.81368468534902E-19   1.12971827545186E-12
      8.35711338373258E-15  -1.00000000000000E+00  -1.00000000000000E+00   0.00000000000000E+00   0.00000000000000E+00
     -8.43597920557624E-22  -2.41302909055752E-04  -2.41302909055752E-04  -5.74215917720600E-15   0.00000000000000E+00
      0.00000000000000E+00   0.00000000000000E+00   0.00000000000000E+00   3.47250600018962E-23   2.41302907926033E-04
      2.41302907926033E-04  -3.62000865792247E-15
      1.25189248000000E-02
      9.68702688000000E-01   9.68702688000000E-01   0.00000000000000E+00   0.00000000000000E+00   2.45065360175602E-37
     -2.45065360175602E-37   0.00000000000000E+00   9.99102233591755E-16   0.00000000000000E+00   0.00000000000000E+00
      0.00000000000000E+00   0.00000000000000E+00   1.12998171923909E-12   4.06257681650738E-19   1.12998212549677E-12
      8.35731002825646E-15  -1.00000000000000E+00  -1.00000000000000E+00   0.00000000000000E+00   0.00000000000000E+00
     -8.43899280341669E-22  -2.43263130421891E-04  -2.43263130421891E-04  -5.73846730210067E-15   0.00000000000000E+00
      0.00000000000000E+00   0.00000000000000E+00   0.00000000000000E+00   3.49818190210630E-23   2.43263129291909E-04
      2.43263129291909E-04  -3.61794495974754E-15
      1.71263677440000E-02
      9.57184080640000E-01   9.57184080640000E-01   0.00000000000000E+00   0.00000000000000E+00   2.35972669853984E-37
     -2.35972669853984E-37   0.00000000000000E+00   9.91480951768998E-16   0.00000000000000E+00   0.00000000000000E+00
      0.00000000000000E+00   0.00000000000000E+00   1.13031909898048E-12   1.09075556437205E-18   1.13032018973604E-12
      8.35756210045431E-15  -1.00000000000000E+00  -1.00000000000000E+00   0.00000000000000E+00   0.00000000000000E+00
     -8.44286751986363E-22  -2.45783762900033E-04  -2.45783762900033E-04  -5.73373270048666E-15   0.00000000000000E+00
      0.00000000000000E+00   0.00000000000000E+00   0.00000000000000E+00   3.53953974571025E-23   2.45783761769712E-04
      2.45783761769712E-04  -3.61531035173665E-15
      2.30238947123200E-02
      9.42440263219200E-01   9.42440263219200E-01   0.00000000000000E+00   0.00000000000000E+00   2.32792903740624E-37
     -2.32792903740624E-37   0.00000000000000E+00   9.81721973405927E-16   0.00000000000000E+00   0.00000000000000E+00
      0.00000000000000E+00   0.00000000000000E+00   1.13075228773075E-12   3.58282290940478E-18   1.13075587055366E-12
      8.35788540479319E-15  -1.00000000000000E+00  -1.00000000000000E+00   0.00000000000000E+00   0.00000000000000E+00
     -8.44783941560696E-22  -2.49027979020451E-04  -2.49027979020451E-04  -5.72765809058390E-15   0.00000000000000E+00
      0.00000000000000E+00   0.00000000000000E+00   0.00000000000000E+00   3.58199442347390E-23   2.49027977889695E-04
      2.49027977889695E-04  -3.61194928761522E-15
      3.05727292317696E-02
      9.23568176920576E-01   9.23568176920576E-01   0.00000000000000E+00   0.00000000000000E+00   2.44880354483905E-37
     -2.44880354483905E-37   0.00000000000000E+00   9.69223508734661E-16   0.00000000000000E+00   0.00000000000000E+00
      0.00000000000000E+00   0.00000000000000E+00   1.13130877342441E-12   2.58183837562372E-17   1.13133459180816E-12
      8.35829992826879E-15  -1.00000000000000E+00  -1.00000000000000E+00   0.00000000000000E+00   0.00000000000000E+00
     -8.45416764265061E-22  -2.53211161084298E-04  -2.53211161084298E-04  -5.71985809458277E-15   0.00000000000000E+00
      0.00000000000000E+00   0.00000000000000E+00   0.00000000000000E+00   3.63669117068659E-23   2.53211159952963E-04
      2.53211159952963E-04  -3.60766534242069E-15
      4.02352374166651E-02
      8.99411906458337E-01   8.99411906458337E-01   0.00000000000000E+00   0.00000000000000E+00   2.39549977403231E-37
     -2.39549977403231E-37   0.00000000000000E+00   9.53213940772979E-16   0.00000000000000E+00   0.00000000000000E+00
      0.00000000000000E+00   0.00000000000000E+00   1.13202454366228E-12   1.91934677281099E-16   1.13221647833956E-12
      8.35883144054403E-15  -1.00000000000000E+00  -1.00000000000000E+00   0.00000000000000E+00   0.00000000000000E+00
     -8.46184647425060E-22  -2.58614647508102E-04  -2.58614647508102E-04  -5.70983371434955E-15   0.00000000000000E+00
      0.00000000000000E+00   0.00000000000000E+00   0.00000000000000E+00   3.75484624477825E-23   2.58614646375886E-04
      2.58614646375886E-04  -3.60221166696748E-15
      5.26032478933313E-02
      8.68491880266672E-01   8.68491880266672E-01   0.00000000000000E+00   0.00000000000000E+00   2.32858022090633E-37
     -2.32858022090633E-37   0.00000000000000E+00   9.32702679789853E-16   0.00000000000000E+00   0.00000000000000E+00
      0.00000000000000E+00   0.00000000000000E+00   1.13294730057543E-12   1.40473165650121E-15   1.13435203223193E-12
      8.35951315072959E-15  -1.00000000000000E+00  -1.00000000000000E+00   0.00000000000000E+00   0.00000000000000E+00
     -8.46907668726216E-22  -2.65611744712427E-04  -2.65611744712427E-04  -5.69693530802845E-15   0.00000000000000E+00
      0.00000000000000E+00   0.00000000000000E+00   0.00000000000000E+00   3.89841039530212E-23   2.65611743578075E-04
      2.65611743578075E-04  -3.59528052249100E-15
      6.84343013034641E-02
      8.28914246741340E-01   8.28914246741340E-01   0.00000000000000E+00   0.00000000000000E+00   2.44510707463182E-37
     -2.44510707463182E-37   0.00000000000000E+00   9.06419369067760E-16   0.00000000000000E+00   0.00000000000000E+00
      0.00000000000000E+00   0.00000000000000E+00   1.13414267871610E-12   1.06802641802570E-14   1.14482294289636E-12
      8.36038901659748E-15  -1.00000000000000E+00  -1.00000000000000E+00   0.00000000000000E+00   0.00000000000000E+00
     -8.46550548374347E-22  -2.74702099294948E-04  -2.74702099294948E-04  -5.68031405143434E-15   0.00000000000000E+00
      0.00000000000000E+00   0.00000000000000E+00   0.00000000000000E+00   4.13876206792144E-23   2.74702098150126E-04
      2.74702098150126E-04  -3.58649433423089E-15
      8.86980496684340E-02
      7.78254875828915E-01   7.78254875828915E-01   0.00000000000000E+00   0.00000000000000E+00   3.34112188224080E-37
     -3.34112188224080E-37   0.00000000000000E+00   8.72730406229713E-16   0.00000000000000E+00   0.00000000000000E+00
      0.00000000000000E+00   0.00000000000000E+00   1.13568500577083E-12   1.26596061624506E-13   1.26228106739533E-12
      8.36150463247718E-15  -1.00000000000000E+00  -1.00000000000000E+00   0.00000000000000E+00   0.00000000000000E+00
     -8.41340545920614E-22  -2.86426033368798E-04  -2.86426033368798E-04  -5.65891792048868E-15   0.00000000000000E+00
      0.00000000000000E+00   0.00000000000000E+00   0.00000000000000E+00   4.37710240983478E-23   2.86426032106518E-04
      2.86426032106518E-04  -3.57531711821821E-15
      1.00000000000000E-01
      7.50000000000000E-01   7.50000000000000E-01   0.00000000000000E+00   0.00000000000000E+00   2.35739479550659E-37
     -2.35739479550659E-37   0.00000000000000E+00   8.53918010785076E-16   0.00000000000000E+00   0.00000000000000E+00
      0.00000000000000E+00   0.00000000000000E+00   1.13655031361738E-12   6.11035333253004E-15   1.14266066694991E-12
      8.36212111438171E-15  -1.00000000000000E+00  -1.00000000000000E+00   0.00000000000000E+00   0.00000000000000E+00
     -8.51254169390167E-22  -2.92978121446378E-04  -2.92978121446378E-04  -5.64693844017364E-15   0.00000000000000E+00
      0.00000000000000E+00   0.00000000000000E+00   0.00000000000000E+00   4.21483825787820E-23   2.92978120303717E-04
      2.92978120303717E-04  -3.56910068499315E-15
      1.25937597907162E-01
      6.85156005232096E-01   6.85156005232096E-01   0.00000000000000E+00   0.00000000000000E+00   6.02784921953764E-37
     -6.02784921953764E-37   0.00000000000000E+00   8.10685581538536E-16   0.00000000000000E+00   0.00000000000000E+00
      0.00000000000000E+00   0.00000000000000E+00   1.13860262552513E-12   2.22238670343323E-13   1.36084129586845E-12
      8.36354309410272E-15  -1.00000000000000E+00  -1.00000000000000E+00   0.00000000000000E+00   0.00000000000000E+00
     -8.44499450419936E-22  -3.08358290875897E-04  -3.08358290875897E-04  -5.61917177795147E-15   0.00000000000000E+00
      0.00000000000000E+00   0.00000000000000E+00   0.00000000000000E+00   4.56176808376838E-23   3.08358289515056E-04
      3.08358289515056E-04  -3.55505689768979E-15
      1.59137723228328E-01
      6.02155691929179E-01   6.02155691929179E-01   0.00000000000000E+00   0.00000000000000E+00   2.44203756776955E-37
     -2.44203756776955E-37   0.00000000000000E+00   7.55235640372852E-16   0.00000000000000E+00   0.00000000000000E+00
      0.00000000000000E+00   0.00000000000000E+00   1.14131416381163E-12   1.56114751928637E-19   1.14131431992639E-12
      8.36535013394874E-15  -1.00000000000000E+00  -1.00000000000000E+00   0.00000000000000E+00   0.00000000000000E+00
     -8.56946014329407E-22  -3.28123999882174E-04  -3.28123999882174E-04  -5.58340436960645E-15   0.00000000000000E+00
      0.00000000000000E+00   0.00000000000000E+00   0.00000000000000E+00   4.72338773911184E-23   3.28123998740861E-04
      3.28123998740861E-04  -3.53718140471514E-15
      2.00000000000000E-01
      5.00000000000000E-01   5.00000000000000E-01   0.00000000000000E+00   0.00000000000000E+00   2.36190327050817E-37
     -2.36190327050817E-37   0.00000000000000E+00   6.86829688578633E-16   0.00000000000000E+00   0.00000000000000E+00
      0.00000000000000E+00   0.00000000000000E+00   1.14486453650863E-12  -3.54615892140120E-18   1.14486099034971E-12
      8.36756385313546E-15  -1.00000000000000E+00  -1.00000000000000E+00   0.00000000000000E+00   0.00000000000000E+00
     -8.60715882935950E-22  -3.52642152226274E-04  -3.52642152226274E-04  -5.53899132774243E-15   0.00000000000000E+00
      0.00000000000000E+00   0.00000000000000E+00   0.00000000000000E+00   5.06446406356451E-23   3.52642151081414E-04
      3.52642151081414E-04  -3.51540221397165E-15
      2.41832157904670E-01
      3.95419605238325E-01   3.95419605238325E-01   0.00000000000000E+00   0.00000000000000E+00   2.35662568669844E-37
     -2.35662568669844E-37   0.00000000000000E+00   6.16648487024774E-16   0.00000000000000E+00   0.00000000000000E+00
      0.00000000000000E+00   0.00000000000000E+00   1.14879807463322E-12  -1.11292504581312E-17   1.14878694538276E-12
      8.36981322461068E-15  -1.00000000000000E+00  -1.00000000000000E+00   0.00000000000000E+00   0.00000000000000E+00
     -8.64753275290191E-22  -3.77798774829613E-04  -3.77798774829613E-04  -5.49318941607922E-15   0.00000000000000E+00
      0.00000000000000E+00   0.00000000000000E+00   0.00000000000000E+00   5.43212896608316E-23   3.77798773680827E-04
      3.77798773680827E-04  -3.49327229555625E-15
      2.94540676864554E-01
      2.63648307838614E-01   2.63648307838614E-01   0.00000000000000E+00   0.00000000000000E+00   2.29819795079205E-37
     -2.29819795079205E-37   0.00000000000000E+00   5.28044363684864E-16   0.00000000000000E+00   0.00000000000000E+00
      0.00000000000000E+00   0.00000000000000E+00   1.15411590042199E-12  -7.71844492528140E-17   1.15403871597274E-12
      8.37262150748531E-15  -1.00000000000000E+00  -1.00000000000000E+00   0.00000000000000E+00   0.00000000000000E+00
     -8.72277399088787E-22  -4.08983766808235E-04  -4.08983766808235E-04  -5.43534569858280E-15   0.00000000000000E+00
      0.00000000000000E+00   0.00000000000000E+00   0.00000000000000E+00   5.88998718760630E-23   4.08983765654197E-04
      4.08983765654197E-04  -3.46532017258739E-15
      3.00000000000000E-01
      2.50000000000000E-01   2.50000000000000E-01   0.00000000000000E+00   0.00000000000000E+00   2.35051853238592E-37
     -2.35051853238592E-37   0.00000000000000E+00   5.18858975616226E-16   0.00000000000000E+00   0.00000000000000E+00
      0.00000000000000E+00   0.00000000000000E+00   1.15468768275330E-12   1.36889463414056E-15   1.15605657738744E-12
      8.37291464207661E-15  -1.00000000000000E+00  -1.00000000000000E+00   0.00000000000000E+00   0.00000000000000E+00
     -8.69063435491785E-22  -4.12192275107408E-04  -4.12192275107408E-04  -5.42934428958217E-15   0.00000000000000E+00
      0.00000000000000E+00   0.00000000000000E+00   0.00000000000000E+00   5.96268056659738E-23   4.12192273951352E-04
      4.12192273951352E-04  -3.46242932811065E-15
      3.66412733889454E-01
      8.39681652763642E-02   8.39681652763642E-02   0.00000000000000E+00   0.00000000000000E+00   2.26267107338550E-37
     -2.26267107338550E-37   0.00000000000000E+00   4.07071609185765E-16   0.00000000000000E+00   0.00000000000000E+00
      0.00000000000000E+00   0.00000000000000E+00   1.16199436591195E-12   3.97340650451018E-20   1.16199440564601E-12
      8.37648372284374E-15  -1.00000000000000E+00  -1.00000000000000E+00   0.00000000000000E+00   0.00000000000000E+00
     -8.75943187100490E-22  -4.51723608992698E-04  -4.51723608992698E-04  -5.35575916018886E-15   0.00000000000000E+00
      0.00000000000000E+00   0.00000000000000E+00   0.00000000000000E+00   6.50091867818488E-23   4.51723607830705E-04
      4.51723607830705E-04  -3.42779617184064E-15
      4.00000000000000E-01
      0.00000000000000E+00   0.00000000000000E+00   0.00000000000000E+00   0.00000000000000E+00   2.28694674363486E-37
     -2.28694674363486E-37   0.00000000000000E+00   3.50530115757159E-16   0.00000000000000E+00   0.00000000000000E+00
      0.00000000000000E+00   0.00000000000000E+00   1.16585516621059E-12  -3.76476951781463E-19   1.16585478973364E-12
      8.37829784389299E-15  -1.00000000000000E+00  -1.00000000000000E+00   0.00000000000000E+00   0.00000000000000E+00
     -8.78936486656804E-22  -4.71793721215525E-04  -4.71793721215525E-04  -5.31829263514549E-15   0.00000000000000E+00
      0.00000000000000E+00   0.00000000000000E+00   0.00000000000000E+00   6.82883560853447E-23   4.71793720049671E-04
      4.71793720049671E-04  -3.41053532450467E-15
      4.82351790022923E-01
     -2.05879475057308E-01  -2.05879475057308E-01   0.00000000000000E+00   0.00000000000000E+00   2.40667581375782E-37
     -2.40667581375782E-37   0.00000000000000E+00   2.12059818998572E-16   0.00000000000000E+00   0.00000000000000E+00
      0.00000000000000E+00   0.00000000000000E+00   1.17580685912828E-12  -2.80544792755441E-19   1.17580657858349E-12
      8.38267792755450E-15  -1.00000000000000E+00  -1.00000000000000E+00   0.00000000000000E+00   0.00000000000000E+00
     -8.86516334582949E-22  -5.20523087823540E-04  -5.20523087823540E-04  -5.22608439568176E-15   0.00000000000000E+00
      0.00000000000000E+00   0.00000000000000E+00   0.00000000000000E+00   7.49447168240589E-23   5.20523086647734E-04
      5.20523086647734E-04  -3.36865335087133E-15
      5.00000000000000E-01
     -2.50000000000000E-01  -2.50000000000000E-01   0.00000000000000E+00   0.00000000000000E+00   2.27814684303339E-37
     -2.27814684303339E-37   0.00000000000000E+00   1.82433517690230E-16   0.00000000000000E+00   0.00000000000000E+00
      0.00000000000000E+00   0.00000000000000E+00   1.17803244122777E-12  -3.82750196788622E-18   1.17802861372580E-12
      8.38359250702605E-15  -1.00000000000000E+00  -1.00000000000000E+00   0.00000000000000E+00   0.00000000000000E+00
     -8.88086208646167E-22  -5.30746080905854E-04  -5.30746080905854E-04  -5.20631740706457E-15   0.00000000000000E+00
      0.00000000000000E+00   0.00000000000000E+00   0.00000000000000E+00   7.64451655874423E-23   5.30746079727826E-04
      5.30746079727826E-04  -3.35970861765173E-15
      6.00000000000000E-01
     -5.00000000000000E-01  -5.00000000000000E-01   0.00000000000000E+00   0.00000000000000E+00   2.46258318997722E-37
     -2.46258318997722E-37   0.00000000000000E+00   1.52170549767658E-17   0.00000000000000E+00   0.00000000000000E+00
      0.00000000000000E+00   0.00000000000000E+00   1.19113812564054E-12  -8.55607165793278E-14   1.10557740906121E-12
      8.38861274296976E-15  -1.00000000000000E+00  -1.00000000000000E+00   0.00000000000000E+00   0.00000000000000E+00
     -1.07159374357245E-21  -5.86866935873469E-04  -5.86866935873469E-04  -5.09473069289812E-15   0.00000000000000E+00
      0.00000000000000E+00   0.00000000000000E+00   0.00000000000000E+00   8.46131181382869E-23   5.86866934767893E-04
      5.86866934767893E-04  -3.30909910504838E-15
      7.00000000000000E-01
     -7.50000000000000E-01  -7.50000000000000E-01   0.00000000000000E+00   0.00000000000000E+00   3.70805752237630E-37
     -3.70805752237630E-37   0.00000000000000E+00  -1.50244697710190E-16   0.00000000000000E+00   0.00000000000000E+00
      0.00000000000000E+00   0.00000000000000E+00   1.20435010783041E-12   1.11349061096880E-18   1.20435122132102E-12
      8.39342612424854E-15  -1.00000000000000E+00  -1.00000000000000E+00   0.00000000000000E+00   0.00000000000000E+00
     -9.04818190755590E-22  -6.39737387566891E-04  -6.39737387566891E-04  -4.98464504848417E-15   0.00000000000000E+00
      0.00000000000000E+00   0.00000000000000E+00   0.00000000000000E+00   9.23231801336510E-23   6.39737386362541E-04
      6.39737386362541E-04  -3.25853637805418E-15
      8.00000000000000E-01
     -1.00000000000000E+00  -1.00000000000000E+00   0.00000000000000E+00   0.00000000000000E+00  -2.01068048797718E-37
      2.01068048797718E-37   0.00000000000000E+00  -3.13242907528746E-16   0.00000000000000E+00   0.00000000000000E+00
      0.00000000000000E+00   0.00000000000000E+00   1.21720757983847E-12  -5.60844710890916E-19   1.21720701899375E-12
      8.39817280709269E-15  -1.00000000000000E+00  -1.00000000000000E+00   0.00000000000000E+00   0.00000000000000E+00
     -9.11697977255329E-22  -6.89006988398769E-04  -6.89006988398769E-04  -4.87705866903591E-15   0.00000000000000E+00
      0.00000000000000E+00   0.00000000000000E+00   0.00000000000000E+00   9.93187663820276E-23   6.89006987181563E-04
      6.89006987181563E-04  -3.20787123052806E-15
      9.00000000000000E-01
     -1.25000000000000E+00  -1.25000000000000E+00   0.00000000000000E+00   0.00000000000000E+00   1.15318574250820E-35
     -1.15318574250820E-35   0.00000000000000E+00  -4.73388806730785E-16   0.00000000000000E+00   0.00000000000000E+00
      0.00000000000000E+00   0.00000000000000E+00   1.22913141797092E-12   1.44709170337593E-18   1.22913286506262E-12
      8.40306893852244E-15  -1.00000000000000E+00  -1.00000000000000E+00   0.00000000000000E+00   0.00000000000000E+00
     -9.19252819580539E-22  -7.33606499043766E-04  -7.33606499043766E-04  -4.77304622008285E-15   0.00000000000000E+00
      0.00000000000000E+00   0.00000000000000E+00   0.00000000000000E+00   1.05802376210265E-22   7.33606497814634E-04
      7.33606497814634E-04  -3.15663391170882E-15
      1.00000000000000E+00
     -1.50000000000000E+00  -1.50000000000000E+00   0.00000000000000E+00   0.00000000000000E+00   4.33358000722062E-36
     -4.33358000722062E-36   0.00000000000000E+00  -6.30470629679600E-16   0.00000000000000E+00   0.00000000000000E+00
      0.00000000000000E+00   0.00000000000000E+00   1.23926738753963E-12   1.37593077172839E-18   1.23926876347041E-12
      8.40837900429734E-15  -1.00000000000000E+00  -1.00000000000000E+00   0.00000000000000E+00   0.00000000000000E+00
     -9.25192667093731E-22  -7.72273124887291E-04  -7.72273124887291E-04  -4.67374473688283E-15   0.00000000000000E+00
      0.00000000000000E+00   0.00000000000000E+00   0.00000000000000E+00   1.11292909129447E-22   7.72273123648024E-04
      7.72273123648024E-04  -3.10416363773494E-15
}
