DF-ISE text

Info {
  version   = 1.0
  type      = xyplot
  datasets  = [
    "time"
    "gate OuterVoltage" "gate InnerVoltage" "gate QuasiFermiPotential" "gate DisplacementCurrent" "gate eCurrent"
    "gate hCurrent" "gate TotalCurrent" "gate Charge" "substrate OuterVoltage" "substrate InnerVoltage"
    "substrate QuasiFermiPotential" "substrate DisplacementCurrent" "substrate eCurrent" "substrate hCurrent" "substrate TotalCurrent"
    "substrate Charge" "drain OuterVoltage" "drain InnerVoltage" "drain QuasiFermiPotential" "drain DisplacementCurrent"
    "drain eCurrent" "drain hCurrent" "drain TotalCurrent" "drain Charge" "source OuterVoltage"
    "source InnerVoltage" "source QuasiFermiPotential" "source DisplacementCurrent" "source eCurrent" "source hCurrent"
    "source TotalCurrent" "source Charge" ]
  functions = [
    Time
    OuterVoltage InnerVoltage QuasiFermiPotential DisplacementCurrent eCurrent
    hCurrent TotalCurrent Charge OuterVoltage InnerVoltage
    QuasiFermiPotential DisplacementCurrent eCurrent hCurrent TotalCurrent
    Charge OuterVoltage InnerVoltage QuasiFermiPotential DisplacementCurrent
    eCurrent hCurrent TotalCurrent Charge OuterVoltage
    InnerVoltage QuasiFermiPotential DisplacementCurrent eCurrent hCurrent
    TotalCurrent Charge ]
}

Data {
      0.00000000000000E+00
     -1.00000000000000E+00  -1.00000000000000E+00   0.00000000000000E+00   0.00000000000000E+00   2.48460460990332E-35
     -2.48460460990332E-35   0.00000000000000E+00  -7.08472478511261E-16   0.00000000000000E+00   0.00000000000000E+00
      0.00000000000000E+00   0.00000000000000E+00  -1.03418422211487E-19  -9.70358649300320E-16  -9.70462067722532E-16
     -2.18223551771860E-15   1.00000000000000E+00   1.00000000000000E+00   0.00000000000000E+00   0.00000000000000E+00
      9.70456882631210E-16   9.33190870643909E-21   9.70466214539917E-16   1.80738902731825E-15   0.00000000000000E+00
      0.00000000000000E+00   0.00000000000000E+00   0.00000000000000E+00  -4.14681707960481E-21  -3.05506748941521E-28
     -4.14681738511156E-21   1.08331896891161E-15
      1.00000000000000E-03
     -9.97500000000000E-01  -9.97500000000000E-01   0.00000000000000E+00   0.00000000000000E+00   2.46647046398995E-35
     -2.46647046398995E-35   0.00000000000000E+00  -7.03173660486449E-16   0.00000000000000E+00   0.00000000000000E+00
      0.00000000000000E+00   0.00000000000000E+00  -1.29922223156266E-19  -9.70401711251444E-16  -9.70531633474601E-16
     -2.18617318539256E-15   1.00000000000000E+00   1.00000000000000E+00   0.00000000000000E+00   0.00000000000000E+00
      9.70565141798237E-16   9.33191276877838E-21   9.70574473711006E-16   1.80671027462046E-15   0.00000000000000E+00
      0.00000000000000E+00   0.00000000000000E+00   0.00000000000000E+00  -4.28402363126120E-20  -9.13124175445592E-29
     -4.28402364039244E-20   1.08263657125855E-15
      2.28000000000000E-03
     -9.94300000000000E-01  -9.94300000000000E-01   0.00000000000000E+00   0.00000000000000E+00   2.46290703456839E-35
     -2.46290703456839E-35   0.00000000000000E+00  -6.96407032182031E-16   0.00000000000000E+00   0.00000000000000E+00
      0.00000000000000E+00   0.00000000000000E+00   8.51218536478207E-20  -9.70457918584838E-16  -9.70372796731190E-16
     -2.19119680240220E-15   1.00000000000000E+00   1.00000000000000E+00   0.00000000000000E+00   0.00000000000000E+00
      9.70554518712122E-16   9.33191828615283E-21   9.70563850630408E-16   1.80584112216715E-15   0.00000000000000E+00
      0.00000000000000E+00   0.00000000000000E+00   0.00000000000000E+00  -1.91053898750489E-19  -4.68305309513644E-28
     -1.91053899218795E-19   1.08176271241708E-15
      3.91840000000000E-03
     -9.90204000000000E-01  -9.90204000000000E-01   0.00000000000000E+00   0.00000000000000E+00   2.47564431940946E-35
     -2.47564431940946E-35   0.00000000000000E+00  -6.87771801678156E-16   0.00000000000000E+00   0.00000000000000E+00
      0.00000000000000E+00   0.00000000000000E+00   5.17625339437462E-20  -9.70531650129813E-16  -9.70479887595870E-16
     -2.19759977060734E-15   1.00000000000000E+00   1.00000000000000E+00   0.00000000000000E+00   0.00000000000000E+00
      9.70564295775554E-16   9.33192517926761E-21   9.70573627700733E-16   1.80472803632784E-15   0.00000000000000E+00
      0.00000000000000E+00   0.00000000000000E+00   0.00000000000000E+00  -9.37401044357384E-20  -4.28046754079440E-28
     -9.37401048637851E-20   1.08064353595767E-15
      6.01555200000000E-03
     -9.84961120000000E-01  -9.84961120000000E-01   0.00000000000000E+00   0.00000000000000E+00   2.46229296843137E-35
     -2.46229296843137E-35   0.00000000000000E+00  -6.76761531196066E-16   0.00000000000000E+00   0.00000000000000E+00
      0.00000000000000E+00   0.00000000000000E+00   1.89688081437483E-20  -9.70628957630405E-16  -9.70609988822261E-16
     -2.20575077219183E-15   1.00000000000000E+00   1.00000000000000E+00   0.00000000000000E+00   0.00000000000000E+00
      9.70722598020878E-16   9.33193402871486E-21   9.70731929954906E-16   1.80330235379330E-15   0.00000000000000E+00
      0.00000000000000E+00   0.00000000000000E+00   0.00000000000000E+00  -1.21941132759306E-19   1.06271295978061E-28
     -1.21941132653035E-19   1.07920994959460E-15
      8.69990656000000E-03
     -9.78250233600000E-01  -9.78250233600000E-01   0.00000000000000E+00   0.00000000000000E+00   2.46823775778852E-35
     -2.46823775778852E-35   0.00000000000000E+00  -6.62738810304974E-16   0.00000000000000E+00   0.00000000000000E+00
      0.00000000000000E+00   0.00000000000000E+00   1.10560011203739E-19  -9.70758321452365E-16  -9.70647761441162E-16
     -2.21611040856509E-15   1.00000000000000E+00   1.00000000000000E+00   0.00000000000000E+00   0.00000000000000E+00
      9.70750595406469E-16   9.33194540000225E-21   9.70759927351869E-16   1.80147595721595E-15   0.00000000000000E+00
      0.00000000000000E+00   0.00000000000000E+00   0.00000000000000E+00  -1.12165910655055E-19  -5.66626374921214E-29
     -1.12165910711718E-19   1.07737326165411E-15
      1.21358803968000E-02
     -9.69660299008000E-01  -9.69660299008000E-01   0.00000000000000E+00   0.00000000000000E+00   2.47045189395194E-35
     -2.47045189395194E-35   0.00000000000000E+00  -6.44905582745798E-16   0.00000000000000E+00   0.00000000000000E+00
      0.00000000000000E+00   0.00000000000000E+00  -1.19412379896691E-20  -9.70931767290344E-16  -9.70943708528334E-16
     -2.22924963895428E-15   1.00000000000000E+00   1.00000000000000E+00   0.00000000000000E+00   0.00000000000000E+00
      9.71049733283335E-16   9.33196003007579E-21   9.71059065243365E-16   1.79913568561910E-15   0.00000000000000E+00
      0.00000000000000E+00   0.00000000000000E+00   0.00000000000000E+00  -1.15356714896908E-19  -1.31984716118068E-28
     -1.15356715028892E-19   1.07501953608097E-15
      1.65339269079040E-02
     -9.58665182730240E-01  -9.58665182730240E-01   0.00000000000000E+00   0.00000000000000E+00   2.48922221253672E-35
     -2.48922221253672E-35   0.00000000000000E+00  -6.22269636507323E-16   0.00000000000000E+00   0.00000000000000E+00
      0.00000000000000E+00   0.00000000000000E+00   4.05042493453758E-20  -9.71166580642330E-16  -9.71126076392985E-16
     -2.24586872854745E-15   1.00000000000000E+00   1.00000000000000E+00   0.00000000000000E+00   0.00000000000000E+00
      9.71215788695138E-16   9.33197888901981E-21   9.71225120674027E-16   1.79613609280539E-15   0.00000000000000E+00
      0.00000000000000E+00   0.00000000000000E+00   0.00000000000000E+00  -9.90442804748874E-20  -5.66705505333908E-28
     -9.90442810415929E-20   1.07200227224938E-15
      2.21634264421171E-02
     -9.44591433894707E-01  -9.44591433894707E-01   0.00000000000000E+00   0.00000000000000E+00   2.46502125820911E-35
     -2.46502125820911E-35   0.00000000000000E+00  -5.93608878352253E-16   0.00000000000000E+00   0.00000000000000E+00
      0.00000000000000E+00   0.00000000000000E+00   2.25979752173307E-19  -9.71487869397075E-16  -9.71261889644902E-16
     -2.26681404971831E-15   1.00000000000000E+00   1.00000000000000E+00   0.00000000000000E+00   0.00000000000000E+00
      9.71533426131316E-16   9.33200328191616E-21   9.71542758134598E-16   1.79229004077027E-15   0.00000000000000E+00
      0.00000000000000E+00   0.00000000000000E+00   0.00000000000000E+00  -2.80868489909733E-19   2.12657376294856E-28
     -2.80868489697076E-19   1.06813288730029E-15
      2.93691858459099E-02
     -9.26577035385225E-01  -9.26577035385225E-01   0.00000000000000E+00   0.00000000000000E+00   2.49883871117711E-35
     -2.49883871117711E-35   0.00000000000000E+00  -5.57436724139348E-16   0.00000000000000E+00   0.00000000000000E+00
      0.00000000000000E+00   0.00000000000000E+00   1.81957367597700E-18  -9.71932561480949E-16  -9.70112987804972E-16
     -2.29308802909241E-15   1.00000000000000E+00   1.00000000000000E+00   0.00000000000000E+00   0.00000000000000E+00
      9.71959979166888E-16   9.33203375251858E-21   9.71969311200641E-16   1.78735644569068E-15   0.00000000000000E+00
      0.00000000000000E+00   0.00000000000000E+00   0.00000000000000E+00  -1.85632339648666E-18   8.18602819231187E-28
     -1.85632339566806E-18   1.06316830754109E-15
      3.85925578827647E-02
     -9.03518605293088E-01  -9.03518605293088E-01   0.00000000000000E+00   0.00000000000000E+00   2.42968670076143E-35
     -2.42968670076143E-35   0.00000000000000E+00  -5.11973942384504E-16   0.00000000000000E+00   0.00000000000000E+00
      0.00000000000000E+00   0.00000000000000E+00  -5.29192555263599E-20  -9.72556310007437E-16  -9.72609229262964E-16
     -2.32584507751335E-15   1.00000000000000E+00   1.00000000000000E+00   0.00000000000000E+00   0.00000000000000E+00
      9.72677942770913E-16   9.33206970136030E-21   9.72687274840615E-16   1.78102426856138E-15   0.00000000000000E+00
      0.00000000000000E+00   0.00000000000000E+00   0.00000000000000E+00  -7.80455775722317E-20  -8.08592435830989E-29
     -7.80455776530909E-20   1.05679475133647E-15
      5.02140066492017E-02
     -8.74464983376996E-01  -8.74464983376996E-01   0.00000000000000E+00   0.00000000000000E+00   2.43669183625061E-35
     -2.43669183625061E-35   0.00000000000000E+00  -4.56009572208414E-16   0.00000000000000E+00   0.00000000000000E+00
      0.00000000000000E+00   0.00000000000000E+00   4.03747749784505E-20  -9.73432515560624E-16  -9.73392140785646E-16
     -2.36574398093239E-15   1.00000000000000E+00   1.00000000000000E+00   0.00000000000000E+00   0.00000000000000E+00
      9.73547282018589E-16   9.33211589963648E-21   9.73556614134489E-16   1.77301885557904E-15   0.00000000000000E+00
      0.00000000000000E+00   0.00000000000000E+00   0.00000000000000E+00  -1.64473348381344E-19  -4.65311506635813E-28
     -1.64473348846656E-19   1.04873469756176E-15
      6.48570320949124E-02
     -8.37857419762719E-01  -8.37857419762719E-01   0.00000000000000E+00   0.00000000000000E+00   2.43529347815574E-35
     -2.43529347815574E-35   0.00000000000000E+00  -3.87518145255393E-16   0.00000000000000E+00   0.00000000000000E+00
      0.00000000000000E+00   0.00000000000000E+00  -9.57026712551688E-20  -9.74691792022953E-16  -9.74787494694208E-16
     -2.41390663429808E-15   1.00000000000000E+00   1.00000000000000E+00   0.00000000000000E+00   0.00000000000000E+00
      9.74802938000636E-16   9.33217523370189E-21   9.74812270175869E-16   1.76289062474575E-15   0.00000000000000E+00
      0.00000000000000E+00   0.00000000000000E+00   0.00000000000000E+00  -2.47754811004202E-20  -5.62061048750097E-28
     -2.47754816624813E-20   1.03853415480773E-15
      8.33072441565078E-02
     -7.91731889608731E-01  -7.91731889608731E-01   0.00000000000000E+00   0.00000000000000E+00   2.43516132923894E-35
     -2.43516132923894E-35   0.00000000000000E+00  -3.04231529191868E-16   0.00000000000000E+00   0.00000000000000E+00
      0.00000000000000E+00   0.00000000000000E+00  -7.65078449735208E-20  -9.76543454392175E-16  -9.76619962237149E-16
     -2.47144819224925E-15   1.00000000000000E+00   1.00000000000000E+00   0.00000000000000E+00   0.00000000000000E+00
      9.76672406188081E-16   9.33224586754067E-21   9.76681738433949E-16   1.75006589276448E-15   0.00000000000000E+00
      0.00000000000000E+00   0.00000000000000E+00   0.00000000000000E+00  -6.17761965239462E-20  -2.76125427583165E-28
     -6.17761968000716E-20   1.02561382867663E-15
      1.00000000000000E-01
     -7.50000000000000E-01  -7.50000000000000E-01   0.00000000000000E+00   0.00000000000000E+00   2.41614335094746E-35
     -2.41614335094746E-35   0.00000000000000E+00  -2.31512406249316E-16   0.00000000000000E+00   0.00000000000000E+00
      0.00000000000000E+00   0.00000000000000E+00   1.04515852902195E-19  -9.78485567369331E-16  -9.78381051516429E-16
     -2.52075545179199E-15   1.00000000000000E+00   1.00000000000000E+00   0.00000000000000E+00   0.00000000000000E+00
      9.78578496253559E-16   9.33231134328797E-21   9.78587828564902E-16   1.73840484220184E-15   0.00000000000000E+00
      0.00000000000000E+00   0.00000000000000E+00   0.00000000000000E+00  -2.06777048426007E-19  -4.60585962930577E-29
     -2.06777048472065E-19   1.01386301583947E-15
      1.23247267197610E-01
     -6.91881832005974E-01  -6.91881832005974E-01   0.00000000000000E+00   0.00000000000000E+00   2.39714476755182E-35
     -2.39714476755182E-35   0.00000000000000E+00  -1.33899733770473E-16   0.00000000000000E+00   0.00000000000000E+00
      0.00000000000000E+00   0.00000000000000E+00   1.40972441413301E-20  -9.81637495128487E-16  -9.81623397884346E-16
     -2.58558640731228E-15   1.00000000000000E+00   1.00000000000000E+00   0.00000000000000E+00   0.00000000000000E+00
      9.81857692728332E-16   9.33240441544009E-21   9.81867025132747E-16   1.72207823458059E-15   0.00000000000000E+00
      0.00000000000000E+00   0.00000000000000E+00   0.00000000000000E+00  -2.43627248874174E-19   4.72319494543484E-28
     -2.43627248401854E-19   9.97407906502159E-16
      1.52538823866599E-01
     -6.18652940333502E-01  -6.18652940333502E-01   0.00000000000000E+00   0.00000000000000E+00   2.46893614512818E-35
     -2.46893614512818E-35   0.00000000000000E+00  -1.60646978084162E-17   0.00000000000000E+00   0.00000000000000E+00
      0.00000000000000E+00   0.00000000000000E+00  -3.21714335531182E-20  -9.86434170134784E-16  -9.86466341568337E-16
     -2.66184349658363E-15   1.00000000000000E+00   1.00000000000000E+00   0.00000000000000E+00   0.00000000000000E+00
      9.86906400394118E-16   9.33252408207619E-21   9.86915732918200E-16   1.70137173674065E-15   0.00000000000000E+00
      0.00000000000000E+00   0.00000000000000E+00   0.00000000000000E+00  -4.49391349631055E-19  -2.32299140796417E-28
     -4.49391349863354E-19   9.76536457651396E-16
      1.89446185269525E-01
     -5.26384536826187E-01  -5.26384536826187E-01   0.00000000000000E+00   0.00000000000000E+00   2.46892244449052E-35
     -2.46892244449052E-35   0.00000000000000E+00   1.25733257250786E-16   0.00000000000000E+00   0.00000000000000E+00
      0.00000000000000E+00   0.00000000000000E+00   1.96818162533912E-19  -9.94254786424310E-16  -9.94057968261776E-16
     -2.75085684190717E-15   1.00000000000000E+00   1.00000000000000E+00   0.00000000000000E+00   0.00000000000000E+00
      9.96528497703277E-16   9.33267528804278E-21   9.96537830378565E-16   1.67508337625793E-15   0.00000000000000E+00
      0.00000000000000E+00   0.00000000000000E+00   0.00000000000000E+00  -2.47986211638516E-18  -4.05213314065619E-28
     -2.47986211679038E-18   9.50040208398458E-16
      2.00000000000000E-01
     -5.00000000000000E-01  -5.00000000000000E-01   0.00000000000000E+00   0.00000000000000E+00   2.43017711357283E-35
     -2.43017711357283E-35   0.00000000000000E+00   1.65132108331049E-16   0.00000000000000E+00   0.00000000000000E+00
      0.00000000000000E+00   0.00000000000000E+00   1.18984431376503E-19  -9.97034336974497E-16  -9.96915352543120E-16
     -2.77508627184433E-15   1.00000000000000E+00   1.00000000000000E+00   0.00000000000000E+00   0.00000000000000E+00
      1.00072075466205E-15   9.33271824515787E-21   1.00073008738030E-15   1.66752799301211E-15   0.00000000000000E+00
      0.00000000000000E+00   0.00000000000000E+00   0.00000000000000E+00  -3.81473483751879E-18   3.45324418192417E-28
     -3.81473483717347E-18   9.42426170501181E-16
      2.23251637683843E-01
     -4.41870905790392E-01  -4.41870905790392E-01   0.00000000000000E+00   0.00000000000000E+00   2.41223107473520E-35
     -2.41223107473520E-35   0.00000000000000E+00   2.50401818171251E-16   0.00000000000000E+00   0.00000000000000E+00
      0.00000000000000E+00   0.00000000000000E+00  -4.28931115901843E-20  -1.00461818520555E-15  -1.00466107831714E-15
     -2.82682465695910E-15   1.00000000000000E+00   1.00000000000000E+00   0.00000000000000E+00   0.00000000000000E+00
      1.01658673807210E-15   9.33281406813689E-21   1.01659607088617E-15   1.65082570470482E-15   0.00000000000000E+00
      0.00000000000000E+00   0.00000000000000E+00   0.00000000000000E+00  -1.19349925687564E-17  -2.69757692752872E-28
     -1.19349925690261E-17   9.25597134083038E-16
      2.52083668411809E-01
     -3.69790828970477E-01  -3.69790828970477E-01   0.00000000000000E+00   0.00000000000000E+00   2.41561591594159E-35
     -2.41561591594159E-35   0.00000000000000E+00   3.53590499010647E-16   0.00000000000000E+00   0.00000000000000E+00
      0.00000000000000E+00   0.00000000000000E+00  -1.80496043045255E-19  -1.01939244217534E-15  -1.01957293821839E-15
     -2.88823433402596E-15   1.00000000000000E+00   1.00000000000000E+00   0.00000000000000E+00   0.00000000000000E+00
      1.07554663301345E-15   9.33293450462472E-21   1.07555596594796E-15   1.63001121812633E-15   0.00000000000000E+00
      0.00000000000000E+00   0.00000000000000E+00   0.00000000000000E+00  -5.59830277294973E-17  -7.12037115761736E-29
     -5.59830277295685E-17   9.04632616888989E-16
      2.87258745899927E-01
     -2.81853135250181E-01  -2.81853135250181E-01   0.00000000000000E+00   0.00000000000000E+00   2.41818086368001E-35
     -2.41818086368001E-35   0.00000000000000E+00   4.76265889258059E-16   0.00000000000000E+00   0.00000000000000E+00
      0.00000000000000E+00   0.00000000000000E+00  -9.23035997984350E-20  -1.05467914015742E-15  -1.05477144375722E-15
     -2.95966171256950E-15   1.00000000000000E+00   1.00000000000000E+00   0.00000000000000E+00   0.00000000000000E+00
      1.46080450012260E-15   9.33308300185980E-21   1.46081383320560E-15   1.60447021415873E-15   0.00000000000000E+00
      0.00000000000000E+00   0.00000000000000E+00   0.00000000000000E+00  -4.06042389447695E-16  -6.76849268591080E-28
     -4.06042389448372E-16   8.78925609152721E-16
      3.00000000000000E-01
     -2.50000000000000E-01  -2.50000000000000E-01   0.00000000000000E+00   0.00000000000000E+00   2.42403998701714E-35
     -2.42403998701714E-35   0.00000000000000E+00   5.19926890564507E-16   0.00000000000000E+00   0.00000000000000E+00
      0.00000000000000E+00   0.00000000000000E+00  -3.18021794719020E-20  -1.07209198484993E-15  -1.07212378702940E-15
     -2.98468949540594E-15   1.00000000000000E+00   1.00000000000000E+00   0.00000000000000E+00   0.00000000000000E+00
      1.92224356040793E-15   9.33313741065617E-21   1.92225289354534E-15   1.59518033909577E-15   0.00000000000000E+00
      0.00000000000000E+00   0.00000000000000E+00   0.00000000000000E+00  -8.50129106515979E-16   3.72341958949980E-29
     -8.50129106515942E-16   8.69582265745659E-16
      3.43617096085267E-01
     -1.40957259786833E-01  -1.40957259786833E-01   0.00000000000000E+00   0.00000000000000E+00   2.41076212234172E-35
     -2.41076212234172E-35   0.00000000000000E+00   6.66523487868272E-16   0.00000000000000E+00   0.00000000000000E+00
      0.00000000000000E+00   0.00000000000000E+00   8.49088021132804E-20  -1.12237770051515E-15  -1.12229279171304E-15
     -3.06724633807903E-15   1.00000000000000E+00   1.00000000000000E+00   0.00000000000000E+00   0.00000000000000E+00
      1.24813195282977E-14   9.33332517769240E-21   1.24813288616229E-14   1.56323095483392E-15   0.00000000000000E+00
      0.00000000000000E+00   0.00000000000000E+00   0.00000000000000E+00  -1.13590360699102E-14   2.56371077802401E-28
     -1.13590360699099E-14   8.37491895376848E-16
      3.97702295230997E-01
     -5.74426192250677E-03  -5.74426192250677E-03   0.00000000000000E+00   0.00000000000000E+00   2.50212055366267E-35
     -2.50212055366267E-35   0.00000000000000E+00   8.42460478726133E-16   0.00000000000000E+00   0.00000000000000E+00
      0.00000000000000E+00   0.00000000000000E+00  -4.76866946140401E-19  -1.14028552951860E-15  -1.14076239646474E-15
     -3.16333487113133E-15   1.00000000000000E+00   1.00000000000000E+00   0.00000000000000E+00   0.00000000000000E+00
      3.22820637350490E-13   9.33356202958582E-21   3.22820646684052E-13   1.52331401022567E-15   0.00000000000000E+00
      0.00000000000000E+00   0.00000000000000E+00   0.00000000000000E+00  -3.21679884287587E-13   1.74273868940609E-28
     -3.21679884287587E-13   7.97560382179517E-16
      4.00000000000000E-01
      0.00000000000000E+00   0.00000000000000E+00   0.00000000000000E+00   0.00000000000000E+00   2.48439653405721E-35
     -2.48439653405721E-35   0.00000000000000E+00   8.49799377136446E-16   0.00000000000000E+00   0.00000000000000E+00
      0.00000000000000E+00   0.00000000000000E+00   3.74670988348837E-17  -1.14029740401388E-15  -1.10283030517899E-15
     -3.16727391922025E-15   1.00000000000000E+00   1.00000000000000E+00   0.00000000000000E+00   0.00000000000000E+00
      3.73112121913188E-13   9.33357232607105E-21   3.73112131246760E-13   1.52161125886729E-15   0.00000000000000E+00
      0.00000000000000E+00   0.00000000000000E+00   0.00000000000000E+00  -3.72009300941581E-13   6.62677168401985E-28
     -3.72009300941581E-13   7.95863283216511E-16
      4.65983942957791E-01
      1.64959857394478E-01   1.64959857394478E-01   0.00000000000000E+00   0.00000000000000E+00   2.48066823037789E-35
     -2.48066823037789E-35   0.00000000000000E+00   1.05665957364776E-15   0.00000000000000E+00   0.00000000000000E+00
      0.00000000000000E+00   0.00000000000000E+00   8.80634407891182E-19  -1.13493695618022E-15  -1.13405632177233E-15
     -3.27644569176893E-15   1.00000000000000E+00   1.00000000000000E+00   0.00000000000000E+00   0.00000000000000E+00
      2.65303156406708E-11   9.33386563892915E-21   2.65303156500046E-11   1.47248737658548E-15   0.00000000000000E+00
      0.00000000000000E+00   0.00000000000000E+00   0.00000000000000E+00  -2.65291815936829E-11  -2.94906061695332E-28
     -2.65291815936829E-11   7.47298741535703E-16
      5.00000000000000E-01
      2.50000000000000E-01   2.50000000000000E-01   0.00000000000000E+00   0.00000000000000E+00   2.47649776217035E-35
     -2.47649776217035E-35   0.00000000000000E+00   1.16112914006224E-15   0.00000000000000E+00   0.00000000000000E+00
      0.00000000000000E+00   0.00000000000000E+00  -5.68540607602088E-19  -1.13551490549217E-15  -1.13608344609977E-15
     -3.33072282368398E-15   1.00000000000000E+00   1.00000000000000E+00   0.00000000000000E+00   0.00000000000000E+00
      2.52998339360410E-10   9.33401577071059E-21   2.52998339369744E-10   1.44700135854226E-15   0.00000000000000E+00
      0.00000000000000E+00   0.00000000000000E+00   0.00000000000000E+00  -2.52997203286300E-10   2.14792127866921E-28
     -2.52997203286300E-10   7.22592325079471E-16
      5.79180731549350E-01
      4.47951828873374E-01   4.47951828873374E-01   0.00000000000000E+00   0.00000000000000E+00   9.69282817561051E-36
     -9.69282817561051E-36   0.00000000000000E+00   1.40376584511436E-15   0.00000000000000E+00   0.00000000000000E+00
      0.00000000000000E+00   0.00000000000000E+00   3.54391103570422E-19  -1.12003057680430E-15  -1.11967618570073E-15
     -3.45873492505557E-15   1.00000000000000E+00   1.00000000000000E+00   0.00000000000000E+00   0.00000000000000E+00
      5.06315750690331E-08   9.33437960766683E-21   5.06315750690424E-08   1.38728073913932E-15   0.00000000000000E+00
      0.00000000000000E+00   0.00000000000000E+00   0.00000000000000E+00  -5.06315739493666E-08   6.28627880208214E-30
     -5.06315739493666E-08   6.67688340801902E-16
      6.00000000000000E-01
      5.00000000000000E-01   5.00000000000000E-01   0.00000000000000E+00   0.00000000000000E+00   2.47079721106035E-35
     -2.47079721106035E-35   0.00000000000000E+00   1.47139107239403E-15   0.00000000000000E+00   0.00000000000000E+00
      0.00000000000000E+00   0.00000000000000E+00  -4.72373366332853E-19  -1.12213810953872E-15  -1.12261048290505E-15
     -3.49723838712471E-15   1.00000000000000E+00   1.00000000000000E+00   0.00000000000000E+00   0.00000000000000E+00
      1.90406978405109E-07   9.33449715956457E-21   1.90406978405118E-07   1.37150392269674E-15   0.00000000000000E+00
      0.00000000000000E+00   0.00000000000000E+00   0.00000000000000E+00  -1.90406977282509E-07  -1.19630288495176E-27
     -1.90406977282509E-07   6.54343392033941E-16
      6.47508438929610E-01
      6.18771097324024E-01   6.18771097324024E-01   0.00000000000000E+00   0.00000000000000E+00   2.47052706035587E-35
     -2.47052706035587E-35   0.00000000000000E+00   1.65296290120793E-15   0.00000000000000E+00   0.00000000000000E+00
      0.00000000000000E+00   0.00000000000000E+00  -1.52429873617715E-19  -1.15335976914290E-15  -1.15351219901652E-15
     -3.61434725474342E-15   1.00000000000000E+00   1.00000000000000E+00   0.00000000000000E+00   0.00000000000000E+00
      2.01389599611487E-06   9.33501431776458E-21   2.01389599611488E-06   1.33557896318891E-15   0.00000000000000E+00
      0.00000000000000E+00   0.00000000000000E+00   0.00000000000000E+00  -2.01389599496137E-06  -1.42747290094303E-26
     -2.01389599496137E-06   6.25805390346552E-16
      6.73754219464805E-01
      6.84385548662012E-01   6.84385548662012E-01   0.00000000000000E+00   0.00000000000000E+00   2.47327347665908E-35
     -2.47327347665908E-35   0.00000000000000E+00   1.77027094672542E-15   0.00000000000000E+00   0.00000000000000E+00
      0.00000000000000E+00   0.00000000000000E+00  -2.30487037226893E-18  -1.17724588725241E-15  -1.17955075762468E-15
     -3.69696439675076E-15   1.00000000000000E+00   1.00000000000000E+00   0.00000000000000E+00   0.00000000000000E+00
      4.67914755218976E-06   9.33557339493066E-21   4.67914755218977E-06   1.31589688811793E-15   0.00000000000000E+00
      0.00000000000000E+00   0.00000000000000E+00   0.00000000000000E+00  -4.67914755101025E-06  -3.23185592736585E-26
     -4.67914755101025E-06   6.10796561907426E-16
      7.00000000000000E-01
      7.50000000000000E-01   7.50000000000000E-01   0.00000000000000E+00   0.00000000000000E+00   3.83620467618069E-35
     -3.83620467618069E-35   0.00000000000000E+00   1.89541187800779E-15   0.00000000000000E+00   0.00000000000000E+00
      0.00000000000000E+00   0.00000000000000E+00   1.06768730719834E-18  -1.20113194151162E-15  -1.20006425420442E-15
     -3.78788879907039E-15   1.00000000000000E+00   1.00000000000000E+00   0.00000000000000E+00   0.00000000000000E+00
      8.74576852915814E-06   9.33636346848806E-21   8.74576852915815E-06   1.29637479700430E-15   0.00000000000000E+00
      0.00000000000000E+00   0.00000000000000E+00   0.00000000000000E+00  -8.74576852795810E-06  -6.12970427046847E-26
     -8.74576852795810E-06   5.96102124058296E-16
      7.32019852252938E-01
      8.30049630632345E-01   8.30049630632345E-01   0.00000000000000E+00   0.00000000000000E+00   2.74806538840899E-35
     -2.74806538840899E-35   0.00000000000000E+00   2.05522727968985E-15   0.00000000000000E+00   0.00000000000000E+00
      0.00000000000000E+00   0.00000000000000E+00   4.00309154341293E-15  -1.22977520164964E-15   2.77331634176329E-15
     -3.90648428815310E-15   1.00000000000000E+00   1.00000000000000E+00   0.00000000000000E+00   0.00000000000000E+00
      1.55520943462146E-05   9.33763153327041E-21   1.55520943462146E-05   1.27278130035103E-15   0.00000000000000E+00
      0.00000000000000E+00   0.00000000000000E+00   0.00000000000000E+00  -1.55520943489880E-05  -1.09324036188877E-25
     -1.55520943489880E-05   5.78475708112216E-16
      7.72364866091640E-01
      9.30912165229100E-01   9.30912165229100E-01   0.00000000000000E+00   0.00000000000000E+00   2.64442096528613E-35
     -2.64442096528613E-35   0.00000000000000E+00   2.26432222460855E-15   0.00000000000000E+00   0.00000000000000E+00
      0.00000000000000E+00   0.00000000000000E+00   3.59881279533949E-13  -1.26538519147128E-15   3.58615894342478E-13
     -4.06432728694972E-15   1.00000000000000E+00   1.00000000000000E+00   0.00000000000000E+00   0.00000000000000E+00
      2.67638248351560E-05   9.33966413648159E-21   2.67638248351560E-05   1.24339242441026E-15   0.00000000000000E+00
      0.00000000000000E+00   0.00000000000000E+00   0.00000000000000E+00  -2.67638251937721E-05  -1.88910738283670E-25
     -2.67638251937721E-05   5.56612637930920E-16
      8.00000000000000E-01
      1.00000000000000E+00   1.00000000000000E+00   0.00000000000000E+00   0.00000000000000E+00   2.48297587881721E-35
     -2.48297587881721E-35   0.00000000000000E+00   2.41122616363427E-15   0.00000000000000E+00   0.00000000000000E+00
      0.00000000000000E+00   0.00000000000000E+00   4.40880662620865E-15  -1.28930052378252E-15   3.11950610242613E-15
     -4.17650680375519E-15   1.00000000000000E+00   1.00000000000000E+00   0.00000000000000E+00   0.00000000000000E+00
      3.59524556611374E-05   9.34130585079331E-21   3.59524556611374E-05   1.22346922214588E-15   0.00000000000000E+00
      0.00000000000000E+00   0.00000000000000E+00   0.00000000000000E+00  -3.59524556642571E-05  -2.53550146222642E-25
     -3.59524556642571E-05   5.41811417975040E-16
      8.50834717436764E-01
      1.12708679359191E+00   1.12708679359191E+00   0.00000000000000E+00   0.00000000000000E+00   2.69718154674317E-35