DF-ISE text

Info {
  version   = 1.0
  type      = xyplot
  datasets  = [
    "time"
    "gate OuterVoltage" "gate InnerVoltage" "gate QuasiFermiPotential" "gate DisplacementCurrent" "gate eCurrent"
    "gate hCurrent" "gate TotalCurrent" "gate Charge" "substrate OuterVoltage" "substrate InnerVoltage"
    "substrate QuasiFermiPotential" "substrate DisplacementCurrent" "substrate eCurrent" "substrate hCurrent" "substrate TotalCurrent"
    "substrate Charge" "drain OuterVoltage" "drain InnerVoltage" "drain QuasiFermiPotential" "drain DisplacementCurrent"
    "drain eCurrent" "drain hCurrent" "drain TotalCurrent" "drain Charge" "source OuterVoltage"
    "source InnerVoltage" "source QuasiFermiPotential" "source DisplacementCurrent" "source eCurrent" "source hCurrent"
    "source TotalCurrent" "source Charge" ]
  functions = [
    Time
    OuterVoltage InnerVoltage QuasiFermiPotential DisplacementCurrent eCurrent
    hCurrent TotalCurrent Charge OuterVoltage InnerVoltage
    QuasiFermiPotential DisplacementCurrent eCurrent hCurrent TotalCurrent
    Charge OuterVoltage InnerVoltage QuasiFermiPotential DisplacementCurrent
    eCurrent hCurrent TotalCurrent Charge OuterVoltage
    InnerVoltage QuasiFermiPotential DisplacementCurrent eCurrent hCurrent
    TotalCurrent Charge ]
}

Data {
      0.00000000000000E+00
     -1.00000000000000E+00  -1.00000000000000E+00   0.00000000000000E+00   0.00000000000000E+00   1.62602063499502E-36
     -1.62602063499502E-36   0.00000000000000E+00  -9.73185201826697E-16   0.00000000000000E+00   0.00000000000000E+00
      0.00000000000000E+00   0.00000000000000E+00   1.90549724741802E-19  -1.47719524165346E-15  -1.47700469192872E-15
     -3.50110874186751E-15   1.00000000000000E+00   1.00000000000000E+00   0.00000000000000E+00   0.00000000000000E+00
      3.20116459932705E-05   9.36624797187605E-21   3.20116459932705E-05   2.81992001747573E-15   0.00000000000000E+00
      0.00000000000000E+00   0.00000000000000E+00   0.00000000000000E+00  -3.20116459917936E-05  -2.27297857646998E-25
     -3.20116459917936E-05   1.65437392621846E-15
      1.00000000000000E-03
     -9.97500000000000E-01  -9.97500000000000E-01   0.00000000000000E+00   0.00000000000000E+00   1.64323398142464E-36
     -1.64323398142464E-36   0.00000000000000E+00  -9.71577044686280E-16   0.00000000000000E+00   0.00000000000000E+00
      0.00000000000000E+00   0.00000000000000E+00  -1.16266096550254E-18  -1.47741938355789E-15  -1.47858204452339E-15
     -3.50117452330337E-15   1.00000000000000E+00   1.00000000000000E+00   0.00000000000000E+00   0.00000000000000E+00
      3.22993123508644E-05   9.36629588241062E-21   3.22993123508644E-05   2.81912030068769E-15   0.00000000000000E+00
      0.00000000000000E+00   0.00000000000000E+00   0.00000000000000E+00  -3.22993123493860E-05  -2.29272305788523E-25
     -3.22993123493860E-05   1.65363126730196E-15
      2.28000000000000E-03
     -9.94300000000000E-01  -9.94300000000000E-01   0.00000000000000E+00   0.00000000000000E+00   4.40792681534001E-36
     -4.40792681534001E-36   0.00000000000000E+00  -9.69518432173215E-16   0.00000000000000E+00   0.00000000000000E+00
      0.00000000000000E+00   0.00000000000000E+00   2.29035211040227E-13  -1.47770821554527E-15   2.27557502824682E-13
     -3.50125912255729E-15   1.00000000000000E+00   1.00000000000000E+00   0.00000000000000E+00   0.00000000000000E+00
      3.26703370060081E-05   9.36635744098117E-21   3.26703370060081E-05   2.81809610607452E-15   0.00000000000000E+00
      0.00000000000000E+00   0.00000000000000E+00   0.00000000000000E+00  -3.26703372335657E-05  -2.85377110950623E-25
     -3.26703372335657E-05   1.65268144865598E-15
      3.94400000000000E-03
     -9.90140000000000E-01  -9.90140000000000E-01   0.00000000000000E+00   0.00000000000000E+00   1.56169418293161E-36
     -1.56169418293161E-36   0.00000000000000E+00  -9.66841948259279E-16   0.00000000000000E+00   0.00000000000000E+00
      0.00000000000000E+00   0.00000000000000E+00   1.01240777129281E-18  -1.47808689988134E-15  -1.47707449211005E-15
     -3.50136977059149E-15   1.00000000000000E+00   1.00000000000000E+00   0.00000000000000E+00   0.00000000000000E+00
      3.31573877807898E-05   9.36643878648206E-21   3.31573877807898E-05   2.81676371714072E-15   0.00000000000000E+00
      0.00000000000000E+00   0.00000000000000E+00   0.00000000000000E+00  -3.31573877793128E-05  -2.35062150274319E-25
     -3.31573877793128E-05   1.65144800171005E-15
      6.07392000000000E-03
     -9.84815200000000E-01  -9.84815200000000E-01   0.00000000000000E+00   0.00000000000000E+00   1.63091594182816E-36
     -1.63091594182816E-36   0.00000000000000E+00  -9.63415574199155E-16   0.00000000000000E+00   0.00000000000000E+00
      0.00000000000000E+00   0.00000000000000E+00  -1.00870445986863E-18  -1.47857682720312E-15  -1.47958553166299E-15
     -3.50151250334469E-15   1.00000000000000E+00   1.00000000000000E+00   0.00000000000000E+00   0.00000000000000E+00
      3.37886048422813E-05   9.36654390271006E-21   3.37886048422813E-05   2.81505671194328E-15   0.00000000000000E+00
      0.00000000000000E+00   0.00000000000000E+00   0.00000000000000E+00  -3.37886048408019E-05  -2.39971614459929E-25
     -3.37886048408019E-05   1.64987136560056E-15
      8.80021760000000E-03
     -9.77999456000000E-01  -9.77999456000000E-01   0.00000000000000E+00   0.00000000000000E+00   1.67166584153650E-36
     -1.67166584153650E-36   0.00000000000000E+00  -9.59029037095611E-16   0.00000000000000E+00   0.00000000000000E+00
      0.00000000000000E+00   0.00000000000000E+00  -5.78483214111272E-19  -1.47921233603481E-15  -1.47979081924892E-15
     -3.50169701016299E-15   1.00000000000000E+00   1.00000000000000E+00   0.00000000000000E+00   0.00000000000000E+00
      3.46093632958238E-05   9.36668057498832E-21   3.46093632958238E-05   2.81286919981413E-15   0.00000000000000E+00
      0.00000000000000E+00   0.00000000000000E+00   0.00000000000000E+00  -3.46093632943442E-05  -2.45867046975013E-25
     -3.46093632943442E-05   1.64785684744448E-15
      1.22898785280000E-02
     -9.69275303680000E-01  -9.69275303680000E-01   0.00000000000000E+00   0.00000000000000E+00   1.62308907915941E-36
     -1.62308907915941E-36   0.00000000000000E+00  -9.53412992789405E-16   0.00000000000000E+00   0.00000000000000E+00
      0.00000000000000E+00   0.00000000000000E+00   3.40141563975329E-19  -1.48003928943690E-15  -1.47969914787293E-15
     -3.50193614738913E-15   1.00000000000000E+00   1.00000000000000E+00   0.00000000000000E+00   0.00000000000000E+00
      3.56810007936869E-05   9.36685901079841E-21   3.56810007936869E-05   2.81006498800432E-15   0.00000000000000E+00
      0.00000000000000E+00   0.00000000000000E+00   0.00000000000000E+00  -3.56810007922073E-05  -2.53582207276250E-25
     -3.56810007922073E-05   1.64528415217424E-15
      1.67566445158400E-02
     -9.58108388710400E-01  -9.58108388710400E-01   0.00000000000000E+00   0.00000000000000E+00   1.59930619483334E-36
     -1.59930619483334E-36   0.00000000000000E+00  -9.46222362447189E-16   0.00000000000000E+00   0.00000000000000E+00
      0.00000000000000E+00   0.00000000000000E+00  -7.19031458100013E-18  -1.48111940202884E-15  -1.48830971660984E-15
     -3.50224711652204E-15   1.00000000000000E+00   1.00000000000000E+00   0.00000000000000E+00   0.00000000000000E+00
      3.70874437318599E-05   9.36709317392061E-21   3.70874437318599E-05   2.80646866015919E-15   0.00000000000000E+00
      0.00000000000000E+00   0.00000000000000E+00   0.00000000000000E+00  -3.70874437303717E-05  -2.63215769659483E-25
     -3.70874437303717E-05   1.64200081881003E-15
      2.24741049802752E-02
     -9.43814737549312E-01  -9.43814737549312E-01   0.00000000000000E+00   0.00000000000000E+00   1.64256502407958E-36
     -1.64256502407958E-36   0.00000000000000E+00  -9.37014874716618E-16   0.00000000000000E+00   0.00000000000000E+00
      0.00000000000000E+00   0.00000000000000E+00  -4.54685248043247E-17  -1.48253635658685E-15  -1.52800488139117E-15
     -3.50265328552514E-15   1.00000000000000E+00   1.00000000000000E+00   0.00000000000000E+00   0.00000000000000E+00
      3.89450711304846E-05   9.36740242457282E-21   3.89450711304846E-05   2.80185390390594E-15   0.00000000000000E+00
      0.00000000000000E+00   0.00000000000000E+00   0.00000000000000E+00  -3.89450711289567E-05  -2.76220622149788E-25
     -3.89450711289567E-05   1.63781425633583E-15
      2.97924543747523E-02
     -9.25518864063119E-01  -9.25518864063119E-01   0.00000000000000E+00   0.00000000000000E+00   1.58205107292708E-36
     -1.58205107292708E-36   0.00000000000000E+00  -9.25223627667662E-16   0.00000000000000E+00   0.00000000000000E+00
      0.00000000000000E+00   0.00000000000000E+00  -3.42736463603869E-16  -1.48440466395651E-15  -1.82714112756038E-15
     -3.50318641435469E-15   1.00000000000000E+00   1.00000000000000E+00   0.00000000000000E+00   0.00000000000000E+00
      4.14183072727290E-05   9.36781411087477E-21   4.14183072727290E-05   2.79592782160672E-15   0.00000000000000E+00
      0.00000000000000E+00   0.00000000000000E+00   0.00000000000000E+00  -4.14183072709020E-05  -2.94370791390612E-25
     -4.14183072709020E-05   1.63248222041564E-15
      3.91599415996829E-02
     -9.02100146000793E-01  -9.02100146000793E-01   0.00000000000000E+00   0.00000000000000E+00   1.60981238112707E-36
     -1.60981238112707E-36   0.00000000000000E+00  -9.10121551395511E-16   0.00000000000000E+00   0.00000000000000E+00
      0.00000000000000E+00   0.00000000000000E+00  -2.38700963303122E-15  -1.48687412668359E-15  -3.87388375971481E-15
     -3.50389005139360E-15   1.00000000000000E+00   1.00000000000000E+00   0.00000000000000E+00   0.00000000000000E+00
      4.47326422145433E-05   9.36836573852783E-21   4.47326422145433E-05   2.78831231981382E-15   0.00000000000000E+00
      0.00000000000000E+00   0.00000000000000E+00   0.00000000000000E+00  -4.47326422106695E-05  -3.17614999025702E-25
     -4.47326422106695E-05   1.62569928297528E-15
      5.11503252475941E-02
     -8.72124186881015E-01  -8.72124186881015E-01   0.00000000000000E+00   0.00000000000000E+00   1.62305047583114E-36
     -1.62305047583114E-36   0.00000000000000E+00  -8.90775412179498E-16   0.00000000000000E+00   0.00000000000000E+00
      0.00000000000000E+00   0.00000000000000E+00  -2.02104527797618E-14  -1.49016329283794E-15  -2.17006160725997E-14
     -3.50482701395956E-15   1.00000000000000E+00   1.00000000000000E+00   0.00000000000000E+00   0.00000000000000E+00
      4.92350027629837E-05   9.36911499589199E-21   4.92350027629837E-05   2.77851178417625E-15   0.00000000000000E+00
      0.00000000000000E+00   0.00000000000000E+00   0.00000000000000E+00  -4.92350027412833E-05  -3.49450658045920E-25
     -4.92350027412833E-05   1.61709064196282E-15
      6.64980163169205E-02
     -8.33754959207699E-01  -8.33754959207699E-01   0.00000000000000E+00   0.00000000000000E+00   1.62731006167585E-36
     -1.62731006167585E-36   0.00000000000000E+00  -8.65987091822767E-16   0.00000000000000E+00   0.00000000000000E+00
      0.00000000000000E+00   0.00000000000000E+00  -1.50012574602048E-13  -1.49456526300811E-15  -1.51507139865056E-13
     -3.50608473654428E-15   1.00000000000000E+00   1.00000000000000E+00   0.00000000000000E+00   0.00000000000000E+00
      5.54280307841474E-05   9.37014546728276E-21   5.54280307841474E-05   2.76587885022461E-15   0.00000000000000E+00
      0.00000000000000E+00   0.00000000000000E+00   0.00000000000000E+00  -5.54280306326404E-05  -3.91622941999643E-25
     -5.54280306326404E-05   1.60619297814241E-15
      8.61430608856582E-02
     -7.84642347785855E-01  -7.84642347785855E-01   0.00000000000000E+00   0.00000000000000E+00   1.76982437236167E-36
     -1.76982437236167E-36   0.00000000000000E+00  -8.34216607649646E-16   0.00000000000000E+00   0.00000000000000E+00
      0.00000000000000E+00   0.00000000000000E+00  -1.14085540434509E-12  -1.50047133195040E-15  -1.14235587567704E-12
     -3.50778913659256E-15   1.00000000000000E+00   1.00000000000000E+00   0.00000000000000E+00   0.00000000000000E+00
      6.40612399856132E-05   9.37158167812743E-21   6.40612399856132E-05   2.74956171723713E-15   0.00000000000000E+00
      0.00000000000000E+00   0.00000000000000E+00   0.00000000000000E+00  -6.40612388432575E-05  -4.49192945709801E-25
     -6.40612388432575E-05   1.59244402700508E-15
      1.00000000000000E-01
     -7.50000000000000E-01  -7.50000000000000E-01   0.00000000000000E+00   0.00000000000000E+00   1.66410955101100E-36
     -1.66410955101100E-36   0.00000000000000E+00  -8.11779251611743E-16   0.00000000000000E+00   0.00000000000000E+00
      0.00000000000000E+00   0.00000000000000E+00  -2.24472748430572E-13  -1.50477201912314E-15  -2.25977520449695E-13
     -3.50905137726505E-15   1.00000000000000E+00   1.00000000000000E+00   0.00000000000000E+00   0.00000000000000E+00
      7.05956794396376E-05   9.37266879292139E-21   7.05956794396377E-05   2.73795728835427E-15   0.00000000000000E+00
      0.00000000000000E+00   0.00000000000000E+00   0.00000000000000E+00  -7.05956792136601E-05  -5.00970723101069E-25
     -7.05956792136601E-05   1.58287334052252E-15
      1.25145657047984E-01
     -6.87135857380039E-01  -6.87135857380039E-01   0.00000000000000E+00   0.00000000000000E+00   1.61965495759987E-36
     -1.61965495759987E-36   0.00000000000000E+00  -7.71003719556274E-16   0.00000000000000E+00   0.00000000000000E+00
      0.00000000000000E+00   0.00000000000000E+00  -3.66263571109505E-18  -1.51283403028689E-15  -1.51649666599798E-15
     -3.51147377481838E-15   1.00000000000000E+00   1.00000000000000E+00   0.00000000000000E+00   0.00000000000000E+00
      8.34574074800372E-05   9.37480852537864E-21   8.34574074800372E-05   2.71668314359706E-15   0.00000000000000E+00
      0.00000000000000E+00   0.00000000000000E+00   0.00000000000000E+00  -8.34574074785208E-05  -5.92850428351485E-25
     -8.34574074785208E-05   1.56579435077760E-15
      1.56829184928444E-01
     -6.07927037678889E-01  -6.07927037678889E-01   0.00000000000000E+00   0.00000000000000E+00   1.60021098799214E-36
     -1.60021098799214E-36   0.00000000000000E+00  -7.19520211924946E-16   0.00000000000000E+00   0.00000000000000E+00
      0.00000000000000E+00   0.00000000000000E+00  -1.68154924566287E-17  -1.52326901896343E-15  -1.54008451142006E-15
     -3.51475053975798E-15   1.00000000000000E+00   1.00000000000000E+00   0.00000000000000E+00   0.00000000000000E+00
      1.01387908927735E-04   9.37779193525217E-21   1.01387908927735E-04   2.68949493955138E-15   0.00000000000000E+00
      0.00000000000000E+00   0.00000000000000E+00   0.00000000000000E+00  -1.01387908926195E-04  -7.20314794832386E-25
     -1.01387908926195E-04   1.54477581213153E-15
      1.96750430057824E-01
     -5.08123924855439E-01  -5.08123924855439E-01   0.00000000000000E+00   0.00000000000000E+00   1.65984726761433E-36
     -1.65984726761433E-36   0.00000000000000E+00  -6.54491850972238E-16   0.00000000000000E+00   0.00000000000000E+00
      0.00000000000000E+00   0.00000000000000E+00   1.03913232714115E-18  -1.53647689120630E-15  -1.53543775887916E-15
     -3.51919128470352E-15   1.00000000000000E+00   1.00000000000000E+00   0.00000000000000E+00   0.00000000000000E+00
      1.26401034251975E-04   9.38195537421748E-21   1.26401034251975E-04   2.65467165054570E-15   0.00000000000000E+00
      0.00000000000000E+00   0.00000000000000E+00   0.00000000000000E+00  -1.26401034250439E-04  -8.98583151155368E-25
     -1.26401034250439E-04   1.51901148513005E-15
      2.00000000000000E-01
     -5.00000000000000E-01  -5.00000000000000E-01   0.00000000000000E+00   0.00000000000000E+00   1.59816348485635E-36
     -1.59816348485635E-36   0.00000000000000E+00  -6.49191223714360E-16   0.00000000000000E+00   0.00000000000000E+00
      0.00000000000000E+00   0.00000000000000E+00  -1.06878038910674E-15  -1.53753951320858E-15  -2.60631990231532E-15
     -3.51956628384973E-15   1.00000000000000E+00   1.00000000000000E+00   0.00000000000000E+00   0.00000000000000E+00
      1.28536075101277E-04   9.38231085111811E-21   1.28536075101277E-04   2.65181258040948E-15   0.00000000000000E+00
      0.00000000000000E+00   0.00000000000000E+00   0.00000000000000E+00  -1.28536075098671E-04  -9.13712557701639E-25
     -1.28536075098671E-04   1.51694492715460E-15
      2.49502343960431E-01
     -3.76244140098922E-01  -3.76244140098922E-01   0.00000000000000E+00   0.00000000000000E+00   1.63404221482495E-36
     -1.63404221482495E-36   0.00000000000000E+00  -5.68312066953484E-16   0.00000000000000E+00   0.00000000000000E+00
      0.00000000000000E+00   0.00000000000000E+00   3.93011241694204E-18  -1.55348661955966E-15  -1.54955650714271E-15
     -3.52552817570281E-15   1.00000000000000E+00   1.00000000000000E+00   0.00000000000000E+00   0.00000000000000E+00
      1.63008214909988E-04   9.38805273765605E-21   1.63008214909988E-04   2.60777292624890E-15   0.00000000000000E+00
      0.00000000000000E+00   0.00000000000000E+00   0.00000000000000E+00  -1.63008214908438E-04  -1.15942212122105E-24
     -1.63008214908438E-04   1.48606731640738E-15
      3.00000000000000E-01
     -2.50000000000000E-01  -2.50000000000000E-01   0.00000000000000E+00   0.00000000000000E+00   1.62522055666043E-36
     -1.62522055666043E-36   0.00000000000000E+00  -4.85576662941473E-16   0.00000000000000E+00   0.00000000000000E+00
      0.00000000000000E+00   0.00000000000000E+00   7.40881278344906E-18  -1.56909331556774E-15  -1.56168450278429E-15
     -3.53204718972627E-15   1.00000000000000E+00   1.00000000000000E+00   0.00000000000000E+00   0.00000000000000E+00
      2.01555451445537E-04   9.39447946444482E-21   2.01555451445537E-04   2.56197282176949E-15   0.00000000000000E+00
      0.00000000000000E+00   0.00000000000000E+00   0.00000000000000E+00  -2.01555451443975E-04  -1.43386055400971E-24
     -2.01555451443975E-04   1.45565103089825E-15
      3.61382906510935E-01
     -9.65427337226636E-02  -9.65427337226636E-02   0.00000000000000E+00   0.00000000000000E+00   1.60415631600419E-36
     -1.60415631600419E-36   0.00000000000000E+00  -3.84766866788016E-16   0.00000000000000E+00   0.00000000000000E+00
      0.00000000000000E+00   0.00000000000000E+00   3.30249703207477E-19  -1.58688702196236E-15  -1.58655677225916E-15
     -3.54044561182209E-15   1.00000000000000E+00   1.00000000000000E+00   0.00000000000000E+00   0.00000000000000E+00
      2.52033968844047E-04   9.40290543435778E-21   2.52033968844047E-04   2.50529417502526E-15   0.00000000000000E+00
      0.00000000000000E+00   0.00000000000000E+00   0.00000000000000E+00  -2.52033968842461E-04  -1.79486719730370E-24
     -2.52033968842461E-04   1.41991830358485E-15
      4.00000000000000E-01
      0.00000000000000E+00   0.00000000000000E+00   0.00000000000000E+00   0.00000000000000E+00   1.61546668928790E-36
     -1.61546668928790E-36   0.00000000000000E+00  -3.21252099522181E-16   0.00000000000000E+00   0.00000000000000E+00
      0.00000000000000E+00   0.00000000000000E+00   1.43228976522887E-18  -1.59735285298732E-15  -1.59592056322209E-15
     -3.54595011928498E-15   1.00000000000000E+00   1.00000000000000E+00   0.00000000000000E+00   0.00000000000000E+00
      2.85377334187713E-04   9.40847770885075E-21   2.85377334187713E-04   2.46917071259525E-15   0.00000000000000E+00
      0.00000000000000E+00   0.00000000000000E+00   0.00000000000000E+00  -2.85377334186119E-04  -2.03329739722986E-24
     -2.85377334186119E-04   1.39803150621190E-15
      4.37443572971670E-01
      9.36089324291751E-02   9.36089324291751E-02   0.00000000000000E+00   0.00000000000000E+00   1.62186726474492E-36
     -1.62186726474492E-36   0.00000000000000E+00  -2.59629003544035E-16   0.00000000000000E+00   0.00000000000000E+00
      0.00000000000000E+00   0.00000000000000E+00   1.75472414986936E-18  -1.60697452827463E-15  -1.60521980412476E-15
     -3.55142364760428E-15   1.00000000000000E+00   1.00000000000000E+00   0.00000000000000E+00   0.00000000000000E+00
      3.18620263095845E-04   9.41403787611586E-21   3.18620263095845E-04   2.43386473702161E-15   0.00000000000000E+00
      0.00000000000000E+00   0.00000000000000E+00   0.00000000000000E+00  -3.18620263094241E-04  -2.27140233151052E-24
     -3.18620263094241E-04   1.37718791412670E-15
      4.83873603456541E-01
      2.09684008641352E-01   2.09684008641352E-01   0.00000000000000E+00   0.00000000000000E+00   1.60370132022437E-36
     -1.60370132022437E-36   0.00000000000000E+00  -1.83199722829996E-16   0.00000000000000E+00   0.00000000000000E+00
      0.00000000000000E+00   0.00000000000000E+00   1.02933685971184E-18  -1.61818880596660E-15  -1.61715946910689E-15
     -3.55837247862878E-15   1.00000000000000E+00   1.00000000000000E+00   0.00000000000000E+00   0.00000000000000E+00
      3.60812499600898E-04   9.42110177297365E-21   3.60812499600898E-04   2.38977559638218E-15   0.00000000000000E+00
      0.00000000000000E+00   0.00000000000000E+00   0.00000000000000E+00  -3.60812499599282E-04  -2.57374286224633E-24
     -3.60812499599282E-04   1.35179660507659E-15
      5.00000000000000E-01
      2.50000000000000E-01   2.50000000000000E-01   0.00000000000000E+00   0.00000000000000E+00   1.60045411073839E-36
     -1.60045411073839E-36   0.00000000000000E+00  -1.56657348551230E-16   0.00000000000000E+00   0.00000000000000E+00
      0.00000000000000E+00   0.00000000000000E+00   6.20689578497091E-18  -1.62188478409376E-15  -1.61567788830879E-15
     -3.56082291496011E-15   1.00000000000000E+00   1.00000000000000E+00   0.00000000000000E+00   0.00000000000000E+00
      3.75667116714219E-04   9.42358983694527E-21   3.75667116714219E-04   2.37439647932211E-15   0.00000000000000E+00
      0.00000000000000E+00   0.00000000000000E+00   0.00000000000000E+00  -3.75667116712605E-04  -2.67987398627056E-24
     -3.75667116712605E-04   1.34308378418924E-15
      5.27858018290922E-01
      3.19645045727306E-01   3.19645045727306E-01   0.00000000000000E+00   0.00000000000000E+00   7.13555990981964E-37
     -7.13555990981964E-37   0.00000000000000E+00  -1.10818458187145E-16   0.00000000000000E+00   0.00000000000000E+00
      0.00000000000000E+00   0.00000000000000E+00  -8.79248015581899E-18  -1.62802454216738E-15  -1.63681702232320E-15
     -3.56509584934377E-15   1.00000000000000E+00   1.00000000000000E+00   0.00000000000000E+00   0.00000000000000E+00
      4.01518932263650E-04   9.42792534743564E-21   4.01518932263650E-04   2.34776410350956E-15   0.00000000000000E+00
      0.00000000000000E+00   0.00000000000000E+00   0.00000000000000E+00  -4.01518932262015E-04  -2.86541326098408E-24
     -4.01518932262015E-04   1.32815020402136E-15
      5.62401960971666E-01
      4.06004902429166E-01   4.06004902429166E-01   0.00000000000000E+00   0.00000000000000E+00   1.60031583044138E-36
     -1.60031583044138E-36   0.00000000000000E+00  -5.40115467505269E-17   0.00000000000000E+00   0.00000000000000E+00
      0.00000000000000E+00   0.00000000000000E+00   6.76101363137685E-17  -1.63522173217162E-15  -1.56761159585785E-15
     -3.57045770875663E-15   1.00000000000000E+00   1.00000000000000E+00   0.00000000000000E+00   0.00000000000000E+00
      4.33833463080137E-04   9.43334098181368E-21   4.33833463080137E-04   2.31464597510490E-15   0.00000000000000E+00
      0.00000000000000E+00   0.00000000000000E+00   0.00000000000000E+00  -4.33833463078571E-04  -3.09736207897865E-24
     -4.33833463078571E-04   1.30982328040226E-15
      6.00000000000000E-01
      5.00000000000000E-01   5.00000000000000E-01   0.00000000000000E+00   0.00000000000000E+00   1.63844457682759E-36
     -1.63844457682759E-36   0.00000000000000E+00   7.75816727093276E-18   0.00000000000000E+00   0.00000000000000E+00
      0.00000000000000E+00   0.00000000000000E+00   2.48665988600885E-18  -1.64251352210874E-15  -1.64002686222273E-15
     -3.57636250542361E-15   1.00000000000000E+00   1.00000000000000E+00   0.00000000000000E+00   0.00000000000000E+00
      4.69214883385375E-04   9.43929147339730E-21   4.69214883385375E-04   2.27851230406658E-15   0.00000000000000E+00
      0.00000000000000E+00   0.00000000000000E+00   0.00000000000000E+00  -4.69214883383736E-04  -3.35201922662028E-24
     -4.69214883383736E-04   1.29009203408609E-15
      6.43525367777737E-01
      6.08813419444343E-01   6.08813419444343E-01   0.00000000000000E+00   0.00000000000000E+00   1.59244755136430E-36
     -1.59244755136430E-36   0.00000000000000E+00   7.91651014663904E-17   0.00000000000000E+00   0.00000000000000E+00
      0.00000000000000E+00   0.00000000000000E+00   3.87068948720406E-19  -1.65019658552140E-15  -1.64980951657268E-15
     -3.58327112540730E-15   1.00000000000000E+00   1.00000000000000E+00   0.00000000000000E+00   0.00000000000000E+00
      5.10279233808475E-04   9.44612369200487E-21   5.10279233808475E-04   2.23660861950277E-15   0.00000000000000E+00
      0.00000000000000E+00   0.00000000000000E+00   0.00000000000000E+00  -5.10279233806828E-04  -3.64737700390788E-24
     -5.10279233806828E-04   1.26749740443814E-15
      6.96626316466577E-01
      7.41565791166442E-01   7.41565791166442E-01   0.00000000000000E+00   0.00000000000000E+00   2.50106172786872E-36
     -2.50106172786872E-36   0.00000000000000E+00   1.66099658677565E-16   0.00000000000000E+00   0.00000000000000E+00
      0.00000000000000E+00   0.00000000000000E+00   1.11243106829554E-19  -1.65847113682747E-15  -1.65835989372064E-15
     -3.59178146139787E-15   1.00000000000000E+00   1.00000000000000E+00   0.00000000000000E+00   0.00000000000000E+00
      5.60267519913806E-04   9.45461609557582E-21   5.60267519913806E-04   2.18544346555484E-15   0.00000000000000E+00
      0.00000000000000E+00   0.00000000000000E+00   0.00000000000000E+00  -5.60267519912150E-04  -4.00754091689364E-24
     -5.60267519912150E-04   1.24023833716548E-15
      7.00000000000000E-01
      7.50000000000000E-01   7.50000000000000E-01   0.00000000000000E+00   0.00000000000000E+00   2.72240446178878E-36
     -2.72240446178878E-36   0.00000000000000E+00   1.71615173919468E-16   0.00000000000000E+00   0.00000000000000E+00
      0.00000000000000E+00   0.00000000000000E+00   9.21581187427624E-16  -1.65895261733458E-15  -7.37371429906960E-16
     -3.59232471643471E-15   1.00000000000000E+00   1.00000000000000E+00   0.00000000000000E+00   0.00000000000000E+00
      5.63432851029752E-04   9.45514070339150E-21   5.63432851029752E-04   2.18219303424303E-15   0.00000000000000E+00
      0.00000000000000E+00   0.00000000000000E+00   0.00000000000000E+00  -5.63432851029014E-04  -4.03037977493444E-24
     -5.63432851029014E-04   1.23851650827220E-15
      7.53100948688839E-01
      8.82752371722099E-01   8.82752371722099E-01   0.00000000000000E+00   0.00000000000000E+00   1.61753130630531E-36
     -1.61753130630531E-36   0.00000000000000E+00   2.58289697876188E-16   0.00000000000000E+00   0.00000000000000E+00
      0.00000000000000E+00   0.00000000000000E+00  -2.89095057188481E-18  -1.66584557729505E-15  -1.66873652786693E-15
     -3.60091192150565E-15   1.00000000000000E+00   1.00000000000000E+00   0.00000000000000E+00   0.00000000000000E+00
      6.12989148904051E-04   9.46350889846829E-21   6.12989148904051E-04   2.13107012227301E-15   0.00000000000000E+00
      0.00000000000000E+00   0.00000000000000E+00   0.00000000000000E+00  -6.12989148902382E-04  -4.38781952117352E-24
     -6.12989148902382E-04   1.21155210135645E-15
      8.00000000000000E-01
      1.00000000000000E+00   1.00000000000000E+00   0.00000000000000E+00   0.00000000000000E+00   1.56372385891178E-36
     -1.56372385891178E-36   0.00000000000000E+00   3.34599115995906E-16   0.00000000000000E+00   0.00000000000000E+00
      0.00000000000000E+00   0.00000000000000E+00   7.46201184133616E-19  -1.67089630748153E-15  -1.67015010629739E-15
     -3.60855563855693E-15   1.00000000000000E+00   1.00000000000000E+00   0.00000000000000E+00   0.00000000000000E+00
      6.56222277801826E-04   9.47076314881398E-21   6.56222277801826E-04   2.08603350191288E-15   0.00000000000000E+00
      0.00000000000000E+00   0.00000000000000E+00   0.00000000000000E+00  -6.56222277800157E-04  -4.70018202109051E-24
     -6.56222277800157E-04   1.18792302064814E-15
      8.26550474344420E-01
      1.06637618586105E+00   1.06637618586105E+00   0.00000000000000E+00   0.00000000000000E+00   1.61132738242917E-36
     -1.61132738242917E-36   0.00000000000000E+00   3.77686776558282E-16   0.00000000000000E+00   0.00000000000000E+00
      0.00000000000000E+00   0.00000000000000E+00   6.78330492747542E-18  -1.67333212405266E-15  -1.66654881912518E-15
     -3.61291084057236E-15   1.00000000000000E+00   1.00000000000000E+00   0.00000000000000E+00   0.00000000000000E+00
      6.80417619896054E-04   9.47490329328571E-21   6.80417619896054E-04   2.06061409597856E-15   0.00000000000000E+00
      0.00000000000000E+00   0.00000000000000E+00   0.00000000000000E+00  -6.80417619894389E-04  -4.87532811688643E-24
     -6.80417619894389E-04   1.17460996803552E-15
      8.59473062531500E-01
      1.14868265632875E+00   1.14868265632875E+00   0.00000000000000E+00   0.00000000000000E+00   1.58215665172401E-36
     -1.58215665172401E-36   0.00000000000000E+00   4.30993851496150E-16   0.00000000000000E+00   0.00000000000000E+00
      0.00000000000000E+00   0.00000000000000E+00   5.93119778499646E-18  -1.67594072358894E-15  -1.67000952580394E-15
     -3.61834376989733E-15   1.00000000000000E+00   1.00000000000000E+00   0.00000000000000E+00   0.00000000000000E+00
      7.10092668471052E-04   9.47992548171992E-21   7.10092668471052E-04   2.02919512063269E-15   0.00000000000000E+00
      0.00000000000000E+00   0.00000000000000E+00   0.00000000000000E+00  -7.10092668469382E-04  -5.09004851536228E-24
     -7.10092668469382E-04   1.15815479776849E-15
      8.79226615443748E-01
      1.19806653860937E+00   1.19806653860937E+00   0.00000000000000E+00   0.00000000000000E+00   1.64579930522485E-36