DF-ISE text

Info {
  version   = 1.0
  type      = xyplot
  datasets  = [
    "time"
    "gate OuterVoltage" "gate InnerVoltage" "gate QuasiFermiPotential" "gate DisplacementCurrent" "gate eCurrent"
    "gate hCurrent" "gate TotalCurrent" "gate Charge" "substrate OuterVoltage" "substrate InnerVoltage"
    "substrate QuasiFermiPotential" "substrate DisplacementCurrent" "substrate eCurrent" "substrate hCurrent" "substrate TotalCurrent"
    "substrate Charge" "drain OuterVoltage" "drain InnerVoltage" "drain QuasiFermiPotential" "drain DisplacementCurrent"
    "drain eCurrent" "drain hCurrent" "drain TotalCurrent" "drain Charge" "source OuterVoltage"
    "source InnerVoltage" "source QuasiFermiPotential" "source DisplacementCurrent" "source eCurrent" "source hCurrent"
    "source TotalCurrent" "source Charge" ]
  functions = [
    Time
    OuterVoltage InnerVoltage QuasiFermiPotential DisplacementCurrent eCurrent
    hCurrent TotalCurrent Charge OuterVoltage InnerVoltage
    QuasiFermiPotential DisplacementCurrent eCurrent hCurrent TotalCurrent
    Charge OuterVoltage InnerVoltage QuasiFermiPotential DisplacementCurrent
    eCurrent hCurrent TotalCurrent Charge OuterVoltage
    InnerVoltage QuasiFermiPotential DisplacementCurrent eCurrent hCurrent
    TotalCurrent Charge ]
}

Data {
      0.00000000000000E+00
     -1.00000000000000E+00  -1.00000000000000E+00   0.00000000000000E+00   0.00000000000000E+00   1.63222760155966E-36
     -1.63222760155966E-36   0.00000000000000E+00  -7.84372857005867E-16   0.00000000000000E+00   0.00000000000000E+00
      0.00000000000000E+00   0.00000000000000E+00  -6.62497129419182E-22  -1.56201659140234E-14  -1.56201665765205E-14
     -5.56282789258748E-15   1.00000000000000E+00   1.00000000000000E+00   0.00000000000000E+00   0.00000000000000E+00
      2.38217660335874E-09   8.28976461476109E-21   2.38217660336703E-09   3.97106429604394E-15   0.00000000000000E+00
      0.00000000000000E+00   0.00000000000000E+00   0.00000000000000E+00  -2.38216098320046E-09  -6.30596950265318E-26
     -2.38216098320046E-09   2.37613645354941E-15
      1.00000000000000E-03
     -9.97500000000000E-01  -9.97500000000000E-01   0.00000000000000E+00   0.00000000000000E+00   1.63508892107036E-36
     -1.63508892107036E-36   0.00000000000000E+00  -7.83018378052562E-16   0.00000000000000E+00   0.00000000000000E+00
      0.00000000000000E+00   0.00000000000000E+00  -5.37621896215808E-21  -1.56190795186173E-14  -1.56190848948363E-14
     -5.56286949889920E-15   1.00000000000000E+00   1.00000000000000E+00   0.00000000000000E+00   0.00000000000000E+00
      2.43078112146559E-09   8.28976630280002E-21   2.43078112147388E-09   3.97043918054179E-15   0.00000000000000E+00
      0.00000000000000E+00   0.00000000000000E+00   0.00000000000000E+00  -2.43076550238900E-09  -8.23995808630902E-27
     -2.43076550238900E-09   2.37544869640996E-15
      2.28000000000000E-03
     -9.94300000000000E-01  -9.94300000000000E-01   0.00000000000000E+00   0.00000000000000E+00   3.83400042212385E-36
     -3.83400042212385E-36   0.00000000000000E+00  -7.81284614664173E-16   0.00000000000000E+00   0.00000000000000E+00
      0.00000000000000E+00   0.00000000000000E+00  -3.22798152355129E-16  -1.56176968203668E-14  -1.59404949727219E-14
     -5.56292273365476E-15   1.00000000000000E+00   1.00000000000000E+00   0.00000000000000E+00   0.00000000000000E+00
      2.49442403506467E-09   8.28968734398389E-21   2.49442403507296E-09   3.96963901268805E-15   0.00000000000000E+00
      0.00000000000000E+00   0.00000000000000E+00   0.00000000000000E+00  -2.49440809457799E-09  -2.94334222442554E-24
     -2.49440809457799E-09   2.37456833563089E-15
      3.94400000000000E-03
     -9.90140000000000E-01  -9.90140000000000E-01   0.00000000000000E+00   0.00000000000000E+00   7.86101916786429E-36
     -7.86101916786429E-36   0.00000000000000E+00  -7.79030671459006E-16   0.00000000000000E+00   0.00000000000000E+00
      0.00000000000000E+00   0.00000000000000E+00  -9.27988447650039E-16  -1.56159131132155E-14  -1.65439015608656E-14
     -5.56299190313370E-15   1.00000000000000E+00   1.00000000000000E+00   0.00000000000000E+00   0.00000000000000E+00
      2.57962142171880E-09   8.28954574472308E-21   2.57962142172709E-09   3.96859876087731E-15   0.00000000000000E+00
      0.00000000000000E+00   0.00000000000000E+00   0.00000000000000E+00  -2.57960487782553E-09  -8.27158455399559E-24
     -2.57960487782554E-09   2.37342381371539E-15
      6.10720000000000E-03
     -9.84732000000000E-01  -9.84732000000000E-01   0.00000000000000E+00   0.00000000000000E+00   1.95383595044748E-35
     -1.95383595044748E-35   0.00000000000000E+00  -7.76100459676539E-16   0.00000000000000E+00   0.00000000000000E+00
      0.00000000000000E+00   0.00000000000000E+00  -2.72042066567182E-15  -1.56136188108211E-14  -1.83340394764929E-14
     -5.56308176331826E-15   1.00000000000000E+00   1.00000000000000E+00   0.00000000000000E+00   0.00000000000000E+00
      2.69467935824248E-09   8.28914334274237E-21   2.69467935825076E-09   3.96724637671261E-15   0.00000000000000E+00
      0.00000000000000E+00   0.00000000000000E+00   0.00000000000000E+00  -2.69466102421128E-09  -2.36187136928030E-23
     -2.69466102421130E-09   2.37193584628219E-15
      8.91936000000000E-03
     -9.77701600000000E-01  -9.77701600000000E-01   0.00000000000000E+00   0.00000000000000E+00   5.31936350545143E-35
     -5.31936350545143E-35   0.00000000000000E+00  -7.72291040186638E-16   0.00000000000000E+00   0.00000000000000E+00
      0.00000000000000E+00   0.00000000000000E+00  -8.03732334301561E-15  -1.56106802069848E-14  -2.36480035500005E-14
     -5.56319848037419E-15   1.00000000000000E+00   1.00000000000000E+00   0.00000000000000E+00   0.00000000000000E+00
      2.85184627926768E-09   8.28802704041882E-21   2.85184627927597E-09   3.96548818122505E-15   0.00000000000000E+00
      0.00000000000000E+00   0.00000000000000E+00   0.00000000000000E+00  -2.85182263127237E-09  -6.72442596402811E-23
     -2.85182263127243E-09   2.37000133933578E-15
      1.25751680000000E-02
     -9.68562080000000E-01  -9.68562080000000E-01   0.00000000000000E+00   0.00000000000000E+00   1.63860439082725E-36
     -1.63860439082725E-36   0.00000000000000E+00  -7.67338552330217E-16   0.00000000000000E+00   0.00000000000000E+00
      0.00000000000000E+00   0.00000000000000E+00  -7.61349195482022E-21  -1.56069398905615E-14  -1.56069475040535E-14
     -5.56335004255825E-15   1.00000000000000E+00   1.00000000000000E+00   0.00000000000000E+00   0.00000000000000E+00
      3.06973731723577E-09   8.28978584647678E-21   3.06973731724406E-09   3.96320236456652E-15   0.00000000000000E+00
      0.00000000000000E+00   0.00000000000000E+00   0.00000000000000E+00  -3.06972171029657E-09   1.88958678942532E-28
     -3.06972171029657E-09   2.36748623032196E-15
      1.72546022400000E-02
     -9.56863494400000E-01  -9.56863494400000E-01   0.00000000000000E+00   0.00000000000000E+00   1.65900888500432E-36
     -1.65900888500432E-36   0.00000000000000E+00  -7.60998970222670E-16   0.00000000000000E+00   0.00000000000000E+00
      0.00000000000000E+00   0.00000000000000E+00  -2.46371184165182E-21  -1.56022941778202E-14  -1.56022966415320E-14
     -5.56354376398788E-15   1.00000000000000E+00   1.00000000000000E+00   0.00000000000000E+00   0.00000000000000E+00
      3.37271891934432E-09   8.28979376003922E-21   3.37271891935261E-09   3.96027625074800E-15   0.00000000000000E+00
      0.00000000000000E+00   0.00000000000000E+00   0.00000000000000E+00  -3.37270331705598E-09  -4.05270286903615E-27
     -3.37270331705598E-09   2.36426648346255E-15
      2.32442780672000E-02
     -9.41889304832000E-01  -9.41889304832000E-01   0.00000000000000E+00   0.00000000000000E+00   1.63880740251332E-36
     -1.63880740251332E-36   0.00000000000000E+00  -7.52883658602721E-16   0.00000000000000E+00   0.00000000000000E+00
      0.00000000000000E+00   0.00000000000000E+00  -6.90848438426580E-21  -1.55965988396593E-14  -1.55966057481437E-14
     -5.56379127658697E-15   1.00000000000000E+00   1.00000000000000E+00   0.00000000000000E+00   0.00000000000000E+00
      3.80385434329058E-09   8.28980388419167E-21   3.80385434329887E-09   3.95653038412854E-15   0.00000000000000E+00
      0.00000000000000E+00   0.00000000000000E+00   0.00000000000000E+00  -3.80383874669313E-09  -3.06969203949987E-27
     -3.80383874669313E-09   2.36014455106116E-15
      3.09110631260160E-02
     -9.22722342184960E-01  -9.22722342184960E-01   0.00000000000000E+00   0.00000000000000E+00   1.61005947035950E-36
     -1.61005947035950E-36   0.00000000000000E+00  -7.42495010795162E-16   0.00000000000000E+00   0.00000000000000E+00
      0.00000000000000E+00   0.00000000000000E+00  -2.77304251524336E-20  -1.55897474767829E-14  -1.55897752072080E-14
     -5.56410736500359E-15   1.00000000000000E+00   1.00000000000000E+00   0.00000000000000E+00   0.00000000000000E+00
      4.43569564312798E-09   8.28981673999779E-21   4.43569564313627E-09   3.95173494978394E-15   0.00000000000000E+00
      0.00000000000000E+00   0.00000000000000E+00   0.00000000000000E+00  -4.43568005336109E-09  -6.53636901942050E-26
     -4.43568005336109E-09   2.35486742601482E-15
      4.07245480013005E-02
     -8.98188629996749E-01  -8.98188629996749E-01   0.00000000000000E+00   0.00000000000000E+00   1.63154509812053E-36
     -1.63154509812053E-36   0.00000000000000E+00  -7.29195844299853E-16   0.00000000000000E+00   0.00000000000000E+00
      0.00000000000000E+00   0.00000000000000E+00  -2.52849547196671E-19  -1.55817214290332E-14  -1.55819742785804E-14
     -5.56451079060473E-15   1.00000000000000E+00   1.00000000000000E+00   0.00000000000000E+00   0.00000000000000E+00
      5.39713116323694E-09   8.28983247135619E-21   5.39713116324523E-09   3.94559559891537E-15   0.00000000000000E+00
      0.00000000000000E+00   0.00000000000000E+00   0.00000000000000E+00  -5.39711558127096E-09  -3.93984640869352E-26
     -5.39711558127096E-09   2.34811103598920E-15
      5.32858086416646E-02
     -8.66785478395838E-01  -8.66785478395838E-01   0.00000000000000E+00   0.00000000000000E+00   1.65982072599460E-36
     -1.65982072599460E-36   0.00000000000000E+00  -7.12170173780030E-16   0.00000000000000E+00   0.00000000000000E+00
      0.00000000000000E+00   0.00000000000000E+00  -2.26626153470779E-18  -1.55726326519126E-14  -1.55748989134473E-14
     -5.56502531956015E-15   1.00000000000000E+00   1.00000000000000E+00   0.00000000000000E+00   0.00000000000000E+00
      6.93182578673883E-09   8.28984843222257E-21   6.93182578674712E-09   3.93773525348492E-15   0.00000000000000E+00
      0.00000000000000E+00   0.00000000000000E+00   0.00000000000000E+00  -6.93181021184822E-09   1.59858180563044E-26
     -6.93181021184822E-09   2.33946023985526E-15
      6.93642222613307E-02
     -8.26589444346673E-01  -8.26589444346673E-01   0.00000000000000E+00   0.00000000000000E+00   1.64035231373201E-36
     -1.64035231373201E-36   0.00000000000000E+00  -6.90372918215427E-16   0.00000000000000E+00   0.00000000000000E+00
      0.00000000000000E+00   0.00000000000000E+00  -2.12540452542261E-17  -1.55627022988079E-14  -1.55839563440621E-14
     -5.56568101215118E-15   1.00000000000000E+00   1.00000000000000E+00   0.00000000000000E+00   0.00000000000000E+00
      9.53539706922521E-09   8.28984735516462E-21   9.53539706923350E-09   3.92767072262367E-15   0.00000000000000E+00
      0.00000000000000E+00   0.00000000000000E+00   0.00000000000000E+00  -9.53538148527723E-09  -3.12173481570754E-27
     -9.53538148527723E-09   2.32838320774294E-15
      8.99445916945033E-02
     -7.75138520763742E-01  -7.75138520763742E-01   0.00000000000000E+00   0.00000000000000E+00   1.71305386675191E-36
     -1.71305386675191E-36   0.00000000000000E+00  -6.62465399869987E-16   0.00000000000000E+00   0.00000000000000E+00
      0.00000000000000E+00   0.00000000000000E+00  -2.13962807648115E-16  -1.55521291915532E-14  -1.57660919992013E-14
     -5.56651587682217E-15   1.00000000000000E+00   1.00000000000000E+00   0.00000000000000E+00   0.00000000000000E+00
      1.43070623484015E-08   8.28974471097778E-21   1.43070623484098E-08   3.91478259344660E-15   0.00000000000000E+00
      0.00000000000000E+00   0.00000000000000E+00   0.00000000000000E+00  -1.43070465823179E-08   1.77244029421672E-26
     -1.43070465823179E-08   2.31419868324555E-15
      1.00000000000000E-01
     -7.50000000000000E-01  -7.50000000000000E-01   0.00000000000000E+00   0.00000000000000E+00   1.62415603280557E-36
     -1.62415603280557E-36   0.00000000000000E+00  -6.48827195181153E-16   0.00000000000000E+00   0.00000000000000E+00
      0.00000000000000E+00   0.00000000000000E+00  -7.26564027228676E-18  -1.55476106416753E-14  -1.55548762819476E-14
     -5.56692213382386E-15   1.00000000000000E+00   1.00000000000000E+00   0.00000000000000E+00   0.00000000000000E+00
      1.74261154641934E-08   8.28993206874417E-21   1.74261154642017E-08   3.90848322599908E-15   0.00000000000000E+00
      0.00000000000000E+00   0.00000000000000E+00   0.00000000000000E+00  -1.74260999093254E-08   5.44912692043658E-27
     -1.74260999093254E-08   2.30726610300593E-15
      1.26342872874461E-01
     -6.84142817813848E-01  -6.84142817813848E-01   0.00000000000000E+00   0.00000000000000E+00   1.91207537291456E-36
     -1.91207537291456E-36   0.00000000000000E+00  -6.13089684472324E-16   0.00000000000000E+00   0.00000000000000E+00
      0.00000000000000E+00   0.00000000000000E+00  -1.01284046790767E-15  -1.55372485085215E-14  -1.65500889764292E-14
     -5.56798201500476E-15   1.00000000000000E+00   1.00000000000000E+00   0.00000000000000E+00   0.00000000000000E+00
      2.91164718942185E-08   8.28977136590464E-21   2.91164718942268E-08   3.89197273077432E-15   0.00000000000000E+00
      0.00000000000000E+00   0.00000000000000E+00   0.00000000000000E+00  -2.91164553441378E-08   3.12953167944541E-26
     -2.91164553441378E-08   2.28909896870275E-15
      1.60061750153771E-01
     -5.99845624615573E-01  -5.99845624615573E-01   0.00000000000000E+00   0.00000000000000E+00   1.61863554329332E-36
     -1.61863554329332E-36   0.00000000000000E+00  -5.67328105920874E-16   0.00000000000000E+00   0.00000000000000E+00
      0.00000000000000E+00   0.00000000000000E+00  -6.62065815477907E-21  -1.55265230644120E-14  -1.55265296850701E-14
     -5.56933176192868E-15   1.00000000000000E+00   1.00000000000000E+00   0.00000000000000E+00   0.00000000000000E+00
      5.57520961989981E-08   8.29004530976933E-21   5.57520961990064E-08   3.87082206574741E-15   0.00000000000000E+00
      0.00000000000000E+00   0.00000000000000E+00   0.00000000000000E+00  -5.57520806724769E-08   3.56542482149306E-26
     -5.57520806724769E-08   2.26583780210214E-15
      2.00000000000000E-01
     -5.00000000000000E-01  -5.00000000000000E-01   0.00000000000000E+00   0.00000000000000E+00   1.61464624151946E-36
     -1.61464624151946E-36   0.00000000000000E+00  -5.13101011885148E-16   0.00000000000000E+00   0.00000000000000E+00
      0.00000000000000E+00   0.00000000000000E+00   2.29549513670808E-20  -1.55170579761765E-14  -1.55170350212251E-14
     -5.57092738727168E-15   1.00000000000000E+00   1.00000000000000E+00   0.00000000000000E+00   0.00000000000000E+00
      1.18911751800386E-07   8.29012465433289E-21   1.18911751800394E-07   3.84574182501103E-15   0.00000000000000E+00
      0.00000000000000E+00   0.00000000000000E+00   0.00000000000000E+00  -1.18911736283360E-07   1.41016810784804E-26
     -1.18911736283360E-07   2.23828657414580E-15
      2.42485785371931E-01
     -3.93785536570173E-01  -3.93785536570173E-01   0.00000000000000E+00   0.00000000000000E+00   1.62209435149167E-36
     -1.62209435149167E-36   0.00000000000000E+00  -4.55385456566966E-16   0.00000000000000E+00   0.00000000000000E+00
      0.00000000000000E+00   0.00000000000000E+00   3.42016241392427E-20  -1.55100866945874E-14  -1.55100524929632E-14
     -5.57263553036158E-15   1.00000000000000E+00   1.00000000000000E+00   0.00000000000000E+00   0.00000000000000E+00
      2.61854439794136E-07   8.29022225164604E-21   2.61854439794144E-07   3.81902156147537E-15   0.00000000000000E+00
      0.00000000000000E+00   0.00000000000000E+00   0.00000000000000E+00  -2.61854424284092E-07   1.31814180014022E-26
     -2.61854424284092E-07   2.20899942545317E-15
      2.96017874940563E-01
     -2.59955312648592E-01  -2.59955312648592E-01   0.00000000000000E+00   0.00000000000000E+00   1.64059454261300E-36
     -1.64059454261300E-36   0.00000000000000E+00  -3.82618892291399E-16   0.00000000000000E+00   0.00000000000000E+00
      0.00000000000000E+00   0.00000000000000E+00   3.35469039353460E-18  -1.55042874340751E-14  -1.55009327436815E-14
     -5.57484319319097E-15   1.00000000000000E+00   1.00000000000000E+00   0.00000000000000E+00   0.00000000000000E+00
      6.87549565762827E-07   8.29038725243720E-21   6.87549565762835E-07   3.78527959762150E-15   0.00000000000000E+00
      0.00000000000000E+00   0.00000000000000E+00   0.00000000000000E+00  -6.87549550261905E-07  -2.14895616114413E-26
     -6.87549550261905E-07   2.17218248786086E-15
      3.00000000000000E-01
     -2.50000000000000E-01  -2.50000000000000E-01   0.00000000000000E+00   0.00000000000000E+00   1.62565801233000E-36
     -1.62565801233000E-36   0.00000000000000E+00  -3.77203834616913E-16   0.00000000000000E+00   0.00000000000000E+00
      0.00000000000000E+00   0.00000000000000E+00  -2.93271482020101E-17  -1.55039587051167E-14  -1.55332858533187E-14
     -5.57501174249756E-15   1.00000000000000E+00   1.00000000000000E+00   0.00000000000000E+00   0.00000000000000E+00
      7.37605007046654E-07   8.29040265846277E-21   7.37605007046662E-07   3.78276566130879E-15   0.00000000000000E+00
      0.00000000000000E+00   0.00000000000000E+00   0.00000000000000E+00  -7.37604991513379E-07  -1.34955726251864E-26
     -7.37604991513379E-07   2.16944991580569E-15
      3.67450432856477E-01
     -8.13739178588073E-02  -8.13739178588073E-02   0.00000000000000E+00   0.00000000000000E+00   1.67225939674159E-36
     -1.67225939674159E-36   0.00000000000000E+00  -2.85431271212671E-16   0.00000000000000E+00   0.00000000000000E+00
      0.00000000000000E+00   0.00000000000000E+00   1.35911616086301E-15  -1.55008971355891E-14  -1.41417809747260E-14
     -5.57803092229853E-15   1.00000000000000E+00   1.00000000000000E+00   0.00000000000000E+00   0.00000000000000E+00
      2.32878672519185E-06   8.29078969627728E-21   2.32878672519185E-06   3.74007919482321E-15   0.00000000000000E+00
      0.00000000000000E+00   0.00000000000000E+00   0.00000000000000E+00  -2.32878671105009E-06  -3.84819464503662E-26
     -2.32878671105009E-06   2.12338299868799E-15
      4.00000000000000E-01
      0.00000000000000E+00   0.00000000000000E+00   0.00000000000000E+00   0.00000000000000E+00   1.62212240331663E-36
     -1.62212240331663E-36   0.00000000000000E+00  -2.41105307415118E-16   0.00000000000000E+00   0.00000000000000E+00
      0.00000000000000E+00   0.00000000000000E+00   2.18536568693514E-18  -1.55019161565616E-14  -1.54997307908746E-14
     -5.57965556883518E-15   1.00000000000000E+00   1.00000000000000E+00   0.00000000000000E+00   0.00000000000000E+00
      3.92206470596487E-06   8.29111630934359E-21   3.92206470596487E-06   3.71939426706831E-15   0.00000000000000E+00
      0.00000000000000E+00   0.00000000000000E+00   0.00000000000000E+00  -3.92206469046516E-06  -4.89373877019121E-26
     -3.92206469046516E-06   2.10136660918199E-15
      4.84987545399161E-01
      2.12468863497903E-01   2.12468863497903E-01   0.00000000000000E+00   0.00000000000000E+00   3.18921646344976E-36
     -3.18921646344976E-36   0.00000000000000E+00  -1.25215233329366E-16   0.00000000000000E+00   0.00000000000000E+00
      0.00000000000000E+00   0.00000000000000E+00   1.23975212332917E-13  -1.55196549761177E-14   1.08455557356799E-13
     -5.58480519800147E-15   1.00000000000000E+00   1.00000000000000E+00   0.00000000000000E+00   0.00000000000000E+00
      1.32698450295247E-05   8.29284782168795E-21   1.32698450295247E-05   3.66502549798312E-15   0.00000000000000E+00
      0.00000000000000E+00   0.00000000000000E+00   0.00000000000000E+00  -1.32698451379803E-05  -1.25681078769375E-24
     -1.32698451379803E-05   2.04499493334773E-15
      5.00000000000000E-01
      2.50000000000000E-01   2.50000000000000E-01   0.00000000000000E+00   0.00000000000000E+00   1.61484542373136E-36
     -1.61484542373136E-36   0.00000000000000E+00  -1.04718086825489E-16   0.00000000000000E+00   0.00000000000000E+00
      0.00000000000000E+00   0.00000000000000E+00  -3.67508702177152E-19  -1.55259780859177E-14  -1.55263455946199E-14
     -5.58589515339276E-15   1.00000000000000E+00   1.00000000000000E+00   0.00000000000000E+00   0.00000000000000E+00
      1.60461728294331E-05   8.29334212929960E-21   1.60461728294331E-05   3.65535734539227E-15   0.00000000000000E+00
      0.00000000000000E+00   0.00000000000000E+00   0.00000000000000E+00  -1.60461728139068E-05  -1.47781075745739E-25
     -1.60461728139068E-05   2.03525589482599E-15
      6.00000000000000E-01
      5.00000000000000E-01   5.00000000000000E-01   0.00000000000000E+00   0.00000000000000E+00   1.63978903084259E-36
     -1.63978903084259E-36   0.00000000000000E+00   3.19930181866214E-17   0.00000000000000E+00   0.00000000000000E+00
      0.00000000000000E+00   0.00000000000000E+00  -2.02951644282940E-14  -1.55980573395246E-14  -3.58932217678186E-14
     -5.59482736318574E-15   1.00000000000000E+00   1.00000000000000E+00   0.00000000000000E+00   0.00000000000000E+00
      4.60459678427537E-05   8.29859035845897E-21   4.60459678427537E-05   3.59041796512673E-15   0.00000000000000E+00
      0.00000000000000E+00   0.00000000000000E+00   0.00000000000000E+00  -4.60459678068605E-05  -4.85601678575207E-25
     -4.60459678068605E-05   1.97241637987239E-15
      7.00000000000000E-01
      7.50000000000000E-01   7.50000000000000E-01   0.00000000000000E+00   0.00000000000000E+00   2.57100824091535E-36
     -2.57100824091535E-36   0.00000000000000E+00   1.68816662678477E-16   0.00000000000000E+00   0.00000000000000E+00
      0.00000000000000E+00   0.00000000000000E+00  -2.64423103236359E-16  -1.57128762310468E-14  -1.59772993342831E-14
     -5.60647959247345E-15   1.00000000000000E+00   1.00000000000000E+00   0.00000000000000E+00   0.00000000000000E+00
      9.58864685530775E-05   8.30720070324564E-21   9.58864685530775E-05   3.52469223861181E-15   0.00000000000000E+00
      0.00000000000000E+00   0.00000000000000E+00   0.00000000000000E+00  -9.58864685371005E-05  -9.46856101483823E-25
     -9.58864685371005E-05   1.91297069118317E-15
      8.00000000000000E-01
      1.00000000000000E+00   1.00000000000000E+00   0.00000000000000E+00   0.00000000000000E+00   1.63209413034491E-36
     -1.63209413034491E-36   0.00000000000000E+00   3.05402583714257E-16   0.00000000000000E+00   0.00000000000000E+00
      0.00000000000000E+00   0.00000000000000E+00  -5.31353980042117E-19  -1.58455999236128E-14  -1.58461312775928E-14
     -5.62010561672809E-15   1.00000000000000E+00   1.00000000000000E+00   0.00000000000000E+00   0.00000000000000E+00
      1.60602363205497E-04   8.31835205452262E-21   1.60602363205497E-04   3.45854535042742E-15   0.00000000000000E+00
      0.00000000000000E+00   0.00000000000000E+00   0.00000000000000E+00  -1.60602363189651E-04  -1.59637627206204E-24
     -1.60602363189651E-04   1.85615768258642E-15
      9.00000000000000E-01
      1.25000000000000E+00   1.25000000000000E+00   0.00000000000000E+00   0.00000000000000E+00   1.74992117998348E-36
     -1.74992117998348E-36   0.00000000000000E+00   4.41449265803295E-16   0.00000000000000E+00   0.00000000000000E+00
      0.00000000000000E+00   0.00000000000000E+00   8.03228223916657E-21  -1.59769781398268E-14  -1.59769701075445E-14
     -5.63500404230696E-15   1.00000000000000E+00   1.00000000000000E+00   0.00000000000000E+00   0.00000000000000E+00
      2.34764906796154E-04   8.33113545610342E-21   2.34764906796154E-04   3.39231333755427E-15   0.00000000000000E+00
      0.00000000000000E+00   0.00000000000000E+00   0.00000000000000E+00  -2.34764906780178E-04  -2.32702468618736E-24
     -2.34764906780178E-04   1.80124143894940E-15
      1.00000000000000E+00
      1.50000000000000E+00   1.50000000000000E+00   0.00000000000000E+00   0.00000000000000E+00   2.30743570121599E-36
     -2.30743570121599E-36   0.00000000000000E+00   5.76744847776768E-16   0.00000000000000E+00   0.00000000000000E+00
      0.00000000000000E+00   0.00000000000000E+00  -5.59770562976965E-20  -1.60978808019878E-14  -1.60979367790440E-14
     -5.65070962411391E-15   1.00000000000000E+00   1.00000000000000E+00   0.00000000000000E+00   0.00000000000000E+00
      3.14566097732546E-04   8.34491235578311E-21   3.14566097732546E-04   3.32623494693438E-15   0.00000000000000E+00
      0.00000000000000E+00   0.00000000000000E+00   0.00000000000000E+00  -3.14566097716447E-04  -3.12781163196155E-24
     -3.14566097716447E-04   1.74772982940276E-15
}
