DF-ISE text

Info {
  version   = 1.0
  type      = xyplot
  datasets  = [
    "time"
    "gate OuterVoltage" "gate InnerVoltage" "gate QuasiFermiPotential" "gate DisplacementCurrent" "gate eCurrent"
    "gate hCurrent" "gate TotalCurrent" "gate Charge" "substrate OuterVoltage" "substrate InnerVoltage"
    "substrate QuasiFermiPotential" "substrate DisplacementCurrent" "substrate eCurrent" "substrate hCurrent" "substrate TotalCurrent"
    "substrate Charge" "drain OuterVoltage" "drain InnerVoltage" "drain QuasiFermiPotential" "drain DisplacementCurrent"
    "drain eCurrent" "drain hCurrent" "drain TotalCurrent" "drain Charge" "source OuterVoltage"
    "source InnerVoltage" "source QuasiFermiPotential" "source DisplacementCurrent" "source eCurrent" "source hCurrent"
    "source TotalCurrent" "source Charge" ]
  functions = [
    Time
    OuterVoltage InnerVoltage QuasiFermiPotential DisplacementCurrent eCurrent
    hCurrent TotalCurrent Charge OuterVoltage InnerVoltage
    QuasiFermiPotential DisplacementCurrent eCurrent hCurrent TotalCurrent
    Charge OuterVoltage InnerVoltage QuasiFermiPotential DisplacementCurrent
    eCurrent hCurrent TotalCurrent Charge OuterVoltage
    InnerVoltage QuasiFermiPotential DisplacementCurrent eCurrent hCurrent
    TotalCurrent Charge ]
}

Data {
      0.00000000000000E+00
      1.00000000000000E+00   1.00000000000000E+00   0.00000000000000E+00   0.00000000000000E+00   1.21600015277947E-36
     -1.21600015277947E-36   0.00000000000000E+00   7.36201655830826E-16   0.00000000000000E+00   0.00000000000000E+00
      0.00000000000000E+00   0.00000000000000E+00   3.05854207218026E-13   9.02292780782398E-21   3.05854216240954E-13
      5.39176393507280E-15  -1.00000000000000E+00  -1.00000000000000E+00   0.00000000000000E+00   0.00000000000000E+00
     -9.04602520336466E-22  -3.05854420943418E-13  -3.05854421848020E-13  -3.78034865049076E-15   0.00000000000000E+00
      0.00000000000000E+00   0.00000000000000E+00   0.00000000000000E+00  -9.81019679747312E-27   2.05607077474383E-19
      2.05607067664187E-19  -2.34761694041287E-15
      1.00000000000000E-03
      9.97500000000000E-01   9.97500000000000E-01   0.00000000000000E+00   0.00000000000000E+00   1.20548784068798E-36
     -1.20548784068798E-36   0.00000000000000E+00   7.34612649967985E-16   0.00000000000000E+00   0.00000000000000E+00
      0.00000000000000E+00   0.00000000000000E+00   3.05832165138418E-13   5.84677981559314E-21   3.05832170985198E-13
      5.39206701022661E-15  -1.00000000000000E+00  -1.00000000000000E+00   0.00000000000000E+00   0.00000000000000E+00
     -9.04602631479426E-22  -3.05832382161644E-13  -3.05832383066246E-13  -3.77970917171371E-15   0.00000000000000E+00
      0.00000000000000E+00   0.00000000000000E+00   0.00000000000000E+00   1.62409437331379E-26   2.12081033034646E-19
      2.12081049275589E-19  -2.34697048848088E-15
      2.28000000000000E-03
      9.94300000000000E-01   9.94300000000000E-01   0.00000000000000E+00   0.00000000000000E+00   1.71230119197975E-36
     -1.71230119197975E-36   0.00000000000000E+00   7.32578955978809E-16   0.00000000000000E+00   0.00000000000000E+00
      0.00000000000000E+00   0.00000000000000E+00   3.05804190283796E-13   6.03490350861903E-18   3.05810225187305E-13
      5.39245445656583E-15  -1.00000000000000E+00  -1.00000000000000E+00   0.00000000000000E+00   0.00000000000000E+00
     -9.04280784335583E-22  -3.05804411171285E-13  -3.05804412075566E-13  -3.77889051936300E-15   0.00000000000000E+00
      0.00000000000000E+00   0.00000000000000E+00   0.00000000000000E+00  -2.86995952698414E-23  -5.81308303955307E-18
     -5.81311173914834E-18  -2.34614289318163E-15
      3.94400000000000E-03
      9.90140000000000E-01   9.90140000000000E-01   0.00000000000000E+00   0.00000000000000E+00   2.60643604903870E-36
     -2.60643604903870E-36   0.00000000000000E+00   7.29935543871283E-16   0.00000000000000E+00   0.00000000000000E+00
      0.00000000000000E+00   0.00000000000000E+00   3.05768221452187E-13   1.78262149633889E-17   3.05786047667150E-13
      5.39295731758737E-15  -1.00000000000000E+00  -1.00000000000000E+00   0.00000000000000E+00   0.00000000000000E+00
     -9.03703116073296E-22  -3.05768449225012E-13  -3.05768450128715E-13  -3.77782607121702E-15   0.00000000000000E+00
      0.00000000000000E+00   0.00000000000000E+00   0.00000000000000E+00  -8.02652136709246E-23  -1.75974581710246E-17
     -1.75975384362383E-17  -2.34506679024162E-15
      6.10720000000000E-03
      9.84732000000000E-01   9.84732000000000E-01   0.00000000000000E+00   0.00000000000000E+00   1.22356880573059E-36
     -1.22356880573059E-36   0.00000000000000E+00   7.26499763242571E-16   0.00000000000000E+00   0.00000000000000E+00
      0.00000000000000E+00   0.00000000000000E+00   3.05722129238334E-13   8.56395961891074E-21   3.05722137802293E-13
      5.39360965906704E-15  -1.00000000000000E+00  -1.00000000000000E+00   0.00000000000000E+00   0.00000000000000E+00
     -9.04603034231022E-22  -3.05722363997732E-13  -3.05722364902335E-13  -3.77644195162859E-15   0.00000000000000E+00
      0.00000000000000E+00   0.00000000000000E+00   0.00000000000000E+00  -3.77196250190423E-27   2.27100045445570E-19
      2.27100041673608E-19  -2.34366747068103E-15
      8.87609600000000E-03
      9.77809760000000E-01   9.77809760000000E-01   0.00000000000000E+00   0.00000000000000E+00   1.22216296342621E-36
     -1.22216296342621E-36   0.00000000000000E+00   7.22103035908938E-16   0.00000000000000E+00   0.00000000000000E+00
      0.00000000000000E+00   0.00000000000000E+00   3.05664219168080E-13   7.31720179204016E-21   3.05664226485282E-13
      5.39444239748050E-15  -1.00000000000000E+00  -1.00000000000000E+00   0.00000000000000E+00   0.00000000000000E+00
     -9.04603173494489E-22  -3.05664464586336E-13  -3.05664465490939E-13  -3.77466972513554E-15   0.00000000000000E+00
      0.00000000000000E+00   0.00000000000000E+00   0.00000000000000E+00  -2.80844050079351E-27   2.39005659251265E-19
      2.39005656442824E-19  -2.34187570825390E-15
      1.24202828800000E-02
      9.68949292800000E-01   9.68949292800000E-01   0.00000000000000E+00   0.00000000000000E+00   1.19998758367137E-36
     -1.19998758367137E-36   0.00000000000000E+00   7.16476962913824E-16   0.00000000000000E+00   0.00000000000000E+00
      0.00000000000000E+00   0.00000000000000E+00   3.05591848406714E-13   3.20086046506114E-21   3.05591851607575E-13
      5.39550463136977E-15  -1.00000000000000E+00  -1.00000000000000E+00   0.00000000000000E+00   0.00000000000000E+00
     -9.04603418750640E-22  -3.05592107379160E-13  -3.05592108283763E-13  -3.77240037366289E-15   0.00000000000000E+00
      0.00000000000000E+00   0.00000000000000E+00   0.00000000000000E+00  -2.74661186081683E-26   2.56676217110605E-19
      2.56676189644486E-19  -2.33958122062070E-15
      1.69568420864000E-02
      9.57607894784000E-01   9.57607894784000E-01   0.00000000000000E+00   0.00000000000000E+00   1.22078029687134E-36
     -1.22078029687134E-36   0.00000000000000E+00   7.09278399432678E-16   0.00000000000000E+00   0.00000000000000E+00
      0.00000000000000E+00   0.00000000000000E+00   3.05502026989406E-13   2.35168321195581E-23   3.05502027012922E-13
      5.39685833659432E-15  -1.00000000000000E+00  -1.00000000000000E+00   0.00000000000000E+00   0.00000000000000E+00
     -9.04603811201684E-22  -3.05502306496334E-13  -3.05502307400938E-13  -3.76949413745357E-15   0.00000000000000E+00
      0.00000000000000E+00   0.00000000000000E+00   0.00000000000000E+00   1.76906629269026E-26   2.80387999178529E-19
      2.80388016869192E-19  -2.33664259857342E-15
      2.27636378705920E-02
      9.43090905323520E-01   9.43090905323520E-01   0.00000000000000E+00   0.00000000000000E+00   1.21113951184047E-36
     -1.21113951184047E-36   0.00000000000000E+00   7.00068764609083E-16   0.00000000000000E+00   0.00000000000000E+00
      0.00000000000000E+00   0.00000000000000E+00   3.05391533902775E-13   1.10888862519935E-20   3.05391544991661E-13
      5.39858144981691E-15  -1.00000000000000E+00  -1.00000000000000E+00   0.00000000000000E+00   0.00000000000000E+00
     -9.04604273902494E-22  -3.05391842061314E-13  -3.05391842965918E-13  -3.76577177521812E-15   0.00000000000000E+00
      0.00000000000000E+00   0.00000000000000E+00   0.00000000000000E+00   2.01887545989478E-26   2.97974237117701E-19
      2.97974257306456E-19  -2.33287843920787E-15
      3.01963364743578E-02
      9.24509158814106E-01   9.24509158814106E-01   0.00000000000000E+00   0.00000000000000E+00   1.22501378178489E-36
     -1.22501378178489E-36   0.00000000000000E+00   6.88287689439235E-16   0.00000000000000E+00   0.00000000000000E+00
      0.00000000000000E+00   0.00000000000000E+00   3.05257161071670E-13   3.07657883935872E-21   3.05257164148249E-13
      5.40077151701201E-15  -1.00000000000000E+00  -1.00000000000000E+00   0.00000000000000E+00   0.00000000000000E+00
     -9.04604809222199E-22  -3.05257513753738E-13  -3.05257514658343E-13  -3.76100329937473E-15   0.00000000000000E+00
      0.00000000000000E+00   0.00000000000000E+00   0.00000000000000E+00  -3.72369539583573E-26   3.50510131037251E-19
      3.50510093800297E-19  -2.32805590707653E-15
      3.97101906871779E-02
      9.00724523282055E-01   9.00724523282055E-01   0.00000000000000E+00   0.00000000000000E+00   1.21713761581559E-36
     -1.21713761581559E-36   0.00000000000000E+00   6.73219480064841E-16   0.00000000000000E+00   0.00000000000000E+00
      0.00000000000000E+00   0.00000000000000E+00   3.05096142883791E-13  -7.06732749053245E-21   3.05096135816464E-13
      5.40354991059991E-15  -1.00000000000000E+00  -1.00000000000000E+00   0.00000000000000E+00   0.00000000000000E+00
     -9.04605591240132E-22  -3.05096563556482E-13  -3.05096564461088E-13  -3.75489343693529E-15   0.00000000000000E+00
      0.00000000000000E+00   0.00000000000000E+00   0.00000000000000E+00   6.16690104351229E-27   4.28644617840515E-19
      4.28644624007416E-19  -2.32187595372946E-15
      5.18879240795878E-02
      8.70280189801031E-01   8.70280189801031E-01   0.00000000000000E+00   0.00000000000000E+00   1.21714682450359E-36
     -1.21714682450359E-36   0.00000000000000E+00   6.53950467126250E-16   0.00000000000000E+00   0.00000000000000E+00
      0.00000000000000E+00   0.00000000000000E+00   3.04906831058889E-13  -7.35845669635738E-20   3.04906757474322E-13
      5.40706655719213E-15  -1.00000000000000E+00  -1.00000000000000E+00   0.00000000000000E+00   0.00000000000000E+00
     -9.04606346785645E-22  -3.04907364642261E-13  -3.04907365546867E-13  -3.74706283740736E-15   0.00000000000000E+00
      0.00000000000000E+00   0.00000000000000E+00   0.00000000000000E+00  -6.16133570419984E-26   6.08072608097647E-19
      6.08072546484290E-19  -2.31395418691102E-15
      6.74754228218723E-02
      8.31311442945319E-01   8.31311442945319E-01   0.00000000000000E+00   0.00000000000000E+00   1.20603961760157E-36
     -1.20603961760157E-36   0.00000000000000E+00   6.29314785215750E-16   0.00000000000000E+00   0.00000000000000E+00
      0.00000000000000E+00   0.00000000000000E+00   3.04689630656351E-13  -5.56373572433581E-19   3.04689074282778E-13
      5.41150503430714E-15  -1.00000000000000E+00  -1.00000000000000E+00   0.00000000000000E+00   0.00000000000000E+00
     -9.04606753657462E-22  -3.04690369689230E-13  -3.04690370593837E-13  -3.73702375177037E-15   0.00000000000000E+00
      0.00000000000000E+00   0.00000000000000E+00   0.00000000000000E+00  -4.79067216145369E-25   1.29631153797917E-18
      1.29631105891195E-18  -2.30379606775252E-15
      8.74274212119966E-02
      7.81431446970009E-01   7.81431446970009E-01   0.00000000000000E+00   0.00000000000000E+00   1.24326440824731E-36
     -1.24326440824731E-36   0.00000000000000E+00   5.97825428409941E-16   0.00000000000000E+00   0.00000000000000E+00
      0.00000000000000E+00   0.00000000000000E+00   3.04448005905979E-13   5.42559603718107E-21   3.04448011331575E-13
      5.41708781071320E-15  -1.00000000000000E+00  -1.00000000000000E+00   0.00000000000000E+00   0.00000000000000E+00
     -9.04609163574684E-22  -3.04449156383874E-13  -3.04449157288483E-13  -3.72414852811046E-15   0.00000000000000E+00
      0.00000000000000E+00   0.00000000000000E+00   0.00000000000000E+00  -1.08065771777337E-26   1.14595691887967E-18
      1.14595690807310E-18  -2.29076471101268E-15
      1.00000000000000E-01
      7.50000000000000E-01   7.50000000000000E-01   0.00000000000000E+00   0.00000000000000E+00   1.19679211364144E-36
     -1.19679211364144E-36   0.00000000000000E+00   5.78006787782922E-16   0.00000000000000E+00   0.00000000000000E+00
      0.00000000000000E+00   0.00000000000000E+00   3.04314117765362E-13  -4.71320934356806E-19   3.04313646444427E-13
      5.42055146284908E-15  -1.00000000000000E+00  -1.00000000000000E+00   0.00000000000000E+00   0.00000000000000E+00
     -9.04609436539321E-22  -3.04315659185168E-13  -3.04315660089778E-13  -3.71602129959916E-15   0.00000000000000E+00
      0.00000000000000E+00   0.00000000000000E+00   0.00000000000000E+00  -2.79698574842549E-25   2.01364563051794E-18
      2.01364535081937E-18  -2.28253695103285E-15
      1.25139517971557E-01
      6.87151205071109E-01   6.87151205071109E-01   0.00000000000000E+00   0.00000000000000E+00   1.26244167170073E-36
     -1.26244167170073E-36   0.00000000000000E+00   5.38430508043923E-16   0.00000000000000E+00   0.00000000000000E+00
      0.00000000000000E+00   0.00000000000000E+00   3.04082403645774E-13  -1.64838647607583E-17   3.04065919781013E-13
      5.42735798592847E-15  -1.00000000000000E+00  -1.00000000000000E+00   0.00000000000000E+00   0.00000000000000E+00
     -9.04602593779404E-22  -3.04085240849205E-13  -3.04085241753808E-13  -3.69973938750751E-15   0.00000000000000E+00
      0.00000000000000E+00   0.00000000000000E+00   0.00000000000000E+00  -5.78547449487917E-24   1.93219785807933E-17
      1.93219727953189E-17  -2.26604910646488E-15
      1.57318100975149E-01
      6.06704747562128E-01   6.06704747562128E-01   0.00000000000000E+00   0.00000000000000E+00   1.20783231178044E-36
     -1.20783231178044E-36   0.00000000000000E+00   4.87866137959889E-16   0.00000000000000E+00   0.00000000000000E+00
      0.00000000000000E+00   0.00000000000000E+00   3.03842598315058E-13   2.97773941791397E-21   3.03842601292798E-13
      5.43585300640901E-15  -1.00000000000000E+00  -1.00000000000000E+00   0.00000000000000E+00   0.00000000000000E+00
     -9.04614480410780E-22  -3.03849052407133E-13  -3.03849053311748E-13  -3.67884124182822E-15   0.00000000000000E+00
      0.00000000000000E+00   0.00000000000000E+00   0.00000000000000E+00   1.55049708837112E-26   6.45201893474228E-18
      6.45201895024725E-18  -2.24487790254070E-15
      1.97863115559675E-01
      5.05342211100811E-01   5.05342211100811E-01   0.00000000000000E+00   0.00000000000000E+00   1.21905299928791E-36
     -1.21905299928791E-36   0.00000000000000E+00   4.24288274305978E-16   0.00000000000000E+00   0.00000000000000E+00
      0.00000000000000E+00   0.00000000000000E+00   3.03606525665395E-13   8.47693270458358E-21   3.03606534142327E-13
      5.44623887211328E-15  -1.00000000000000E+00  -1.00000000000000E+00   0.00000000000000E+00   0.00000000000000E+00
     -9.04617609821583E-22  -3.03625615269086E-13  -3.03625616173703E-13  -3.65242477771965E-15   0.00000000000000E+00
      0.00000000000000E+00   0.00000000000000E+00   0.00000000000000E+00  -6.88481926755854E-27   1.90820313825413E-17
      1.90820313756565E-17  -2.21810236869962E-15
      2.00000000000000E-01
      5.00000000000000E-01   5.00000000000000E-01   0.00000000000000E+00   0.00000000000000E+00   1.20246275182760E-36
     -1.20246275182760E-36   0.00000000000000E+00   4.20941263085607E-16   0.00000000000000E+00   0.00000000000000E+00
      0.00000000000000E+00   0.00000000000000E+00   3.03595606269443E-13   3.71847390939021E-21   3.03595609987917E-13
      5.44677704524701E-15  -1.00000000000000E+00  -1.00000000000000E+00   0.00000000000000E+00   0.00000000000000E+00
     -9.04617738166465E-22  -3.03615843421972E-13  -3.03615844326590E-13  -3.65103005240030E-15   0.00000000000000E+00
      0.00000000000000E+00   0.00000000000000E+00   0.00000000000000E+00   2.45204402357864E-26   2.02343386485569E-17
      2.02343386730774E-17  -2.21668825593232E-15
      2.51086718376503E-01
      3.72283204058742E-01   3.72283204058742E-01   0.00000000000000E+00   0.00000000000000E+00   1.20978078412613E-36
     -1.20978078412613E-36   0.00000000000000E+00   3.41027174895336E-16   0.00000000000000E+00   0.00000000000000E+00
      0.00000000000000E+00   0.00000000000000E+00   3.03360525452587E-13   5.57653569561964E-21   3.03360531029123E-13
      5.45938915423225E-15  -1.00000000000000E+00  -1.00000000000000E+00   0.00000000000000E+00   0.00000000000000E+00
     -9.04621597062383E-22  -3.03444779915876E-13  -3.03444780820498E-13  -3.61761766883214E-15   0.00000000000000E+00
      0.00000000000000E+00   0.00000000000000E+00   0.00000000000000E+00  -1.11164416188927E-26   8.42497913859073E-17
      8.42497913747909E-17  -2.18279866029545E-15
      3.00000000000000E-01
      2.50000000000000E-01   2.50000000000000E-01   0.00000000000000E+00   0.00000000000000E+00   1.20535375065950E-36
     -1.20535375065950E-36   0.00000000000000E+00   2.64683242787289E-16   0.00000000000000E+00   0.00000000000000E+00
      0.00000000000000E+00   0.00000000000000E+00   3.03138466554547E-13   2.12650250310777E-21   3.03138468681050E-13
      5.47104195121358E-15  -1.00000000000000E+00  -1.00000000000000E+00   0.00000000000000E+00   0.00000000000000E+00
     -9.04625364180381E-22  -3.03483763860915E-13  -3.03483764765540E-13  -3.58551261227958E-15   0.00000000000000E+00
      0.00000000000000E+00   0.00000000000000E+00   0.00000000000000E+00   1.18367459750880E-26   3.45296084477995E-16
      3.45296084489832E-16  -2.15021258172131E-15
      3.64369265154394E-01
      8.90768371140145E-02   8.90768371140145E-02   0.00000000000000E+00   0.00000000000000E+00   1.21627590116339E-36
     -1.21627590116339E-36   0.00000000000000E+00   1.64440350997462E-16   0.00000000000000E+00   0.00000000000000E+00
      0.00000000000000E+00   0.00000000000000E+00   3.02755148173068E-13   3.52614960242606E-21   3.02755151699217E-13
      5.48581865431124E-15  -1.00000000000000E+00  -1.00000000000000E+00   0.00000000000000E+00   0.00000000000000E+00
     -9.04630301544129E-22  -3.05080457251462E-13  -3.05080458156092E-13  -3.54311224917326E-15   0.00000000000000E+00
      0.00000000000000E+00   0.00000000000000E+00   0.00000000000000E+00   2.74684786907217E-26   2.32530645684821E-15
      2.32530645687568E-15  -2.10714675613544E-15
      4.00000000000000E-01
      0.00000000000000E+00   0.00000000000000E+00   0.00000000000000E+00   0.00000000000000E+00   1.21783079808696E-36
     -1.21783079808696E-36   0.00000000000000E+00   1.09052298704447E-16   0.00000000000000E+00   0.00000000000000E+00
      0.00000000000000E+00   0.00000000000000E+00   3.02490610925627E-13   5.67458471859858E-21   3.02490616600212E-13
      5.49375368954553E-15  -1.00000000000000E+00  -1.00000000000000E+00   0.00000000000000E+00   0.00000000000000E+00
     -9.04633065697346E-22  -3.09306911775704E-13  -3.09306912680337E-13  -3.51957627836569E-15   0.00000000000000E+00
      0.00000000000000E+00   0.00000000000000E+00   0.00000000000000E+00   1.62694346005376E-26   6.81629608010908E-15
      6.81629608012535E-15  -2.08322970988429E-15
      4.79817888791449E-01
     -1.99544721978622E-01  -1.99544721978622E-01   0.00000000000000E+00   0.00000000000000E+00   1.21177683926699E-36
     -1.21177683926699E-36   0.00000000000000E+00  -1.47893140491705E-17   0.00000000000000E+00   0.00000000000000E+00
      0.00000000000000E+00   0.00000000000000E+00   3.01880552247109E-13   2.00369501820543E-20   3.01880572284059E-13
      5.51097945366106E-15  -1.00000000000000E+00  -1.00000000000000E+00   0.00000000000000E+00   0.00000000000000E+00
     -9.04639138490977E-22  -3.80709034017754E-13  -3.80709034922393E-13  -3.46670306925295E-15   0.00000000000000E+00
      0.00000000000000E+00   0.00000000000000E+00   0.00000000000000E+00   1.42255386890303E-27   7.88284626383318E-14
      7.88284626383332E-14  -2.02948707035893E-15
      5.00000000000000E-01
     -2.50000000000000E-01  -2.50000000000000E-01   0.00000000000000E+00   0.00000000000000E+00   1.19844230671776E-36
     -1.19844230671776E-36   0.00000000000000E+00  -4.60544944717336E-17   0.00000000000000E+00   0.00000000000000E+00
      0.00000000000000E+00   0.00000000000000E+00   3.01743399549053E-13   1.10894969945512E-21   3.01743400658002E-13
      5.51522793276755E-15  -1.00000000000000E+00  -1.00000000000000E+00   0.00000000000000E+00   0.00000000000000E+00
     -9.04640673994312E-22  -4.49124079190172E-13  -4.49124080094812E-13  -3.45330430221618E-15   0.00000000000000E+00
      0.00000000000000E+00   0.00000000000000E+00   0.00000000000000E+00   1.15266237951044E-27   1.47380679436807E-13
      1.47380679436808E-13  -2.01586913607964E-15
      5.98974182101396E-01
     -4.97435455253491E-01  -4.97435455253491E-01   0.00000000000000E+00   0.00000000000000E+00   1.22683013282782E-36
     -1.22683013282782E-36   0.00000000000000E+00  -1.99121563074996E-16   0.00000000000000E+00   0.00000000000000E+00
      0.00000000000000E+00   0.00000000000000E+00   3.01202751808572E-13   3.40649299866858E-20   3.01202785873502E-13
      5.53555688684388E-15  -1.00000000000000E+00  -1.00000000000000E+00   0.00000000000000E+00   0.00000000000000E+00
     -9.04648359030393E-22  -3.55759773949717E-12  -3.55759774040182E-12  -3.38744440740558E-15   0.00000000000000E+00
      0.00000000000000E+00   0.00000000000000E+00   0.00000000000000E+00   4.26845104211282E-28   3.25639495452831E-12
      3.25639495452831E-12  -1.94899091636331E-15
      6.00000000000000E-01
     -5.00000000000000E-01  -5.00000000000000E-01   0.00000000000000E+00   0.00000000000000E+00   1.20906125584709E-36
     -1.20906125584709E-36   0.00000000000000E+00  -2.00705894751891E-16   0.00000000000000E+00   0.00000000000000E+00
      0.00000000000000E+00   0.00000000000000E+00   3.01198004348095E-13  -1.77951292918770E-19   3.01197826396802E-13
      5.53576387347424E-15  -1.00000000000000E+00  -1.00000000000000E+00   0.00000000000000E+00   0.00000000000000E+00
     -9.04648431855298E-22  -3.66432522982508E-12  -3.66432523072973E-12  -3.38676057980526E-15   0.00000000000000E+00
      0.00000000000000E+00   0.00000000000000E+00   0.00000000000000E+00  -5.56612688810281E-28   3.36312740433293E-12
      3.36312740433293E-12  -1.94829739891708E-15
      7.00000000000000E-01
     -7.50000000000000E-01  -7.50000000000000E-01   0.00000000000000E+00   0.00000000000000E+00   1.93579405857998E-36
     -1.93579405857998E-36   0.00000000000000E+00  -3.54963650698926E-16   0.00000000000000E+00   0.00000000000000E+00
      0.00000000000000E+00   0.00000000000000E+00   3.00838862370003E-13   2.57366790329157E-20   3.00838888106682E-13
      5.55570793821297E-15  -1.00000000000000E+00  -1.00000000000000E+00   0.00000000000000E+00   0.00000000000000E+00
     -9.04656156960528E-22  -7.87946091170063E-11  -7.87946091179109E-11  -3.31999091746025E-15   0.00000000000000E+00
      0.00000000000000E+00   0.00000000000000E+00   0.00000000000000E+00   8.96693329664686E-27   7.84937702298044E-11
      7.84937702298044E-11  -1.88075337005379E-15
      8.00000000000000E-01
     -1.00000000000000E+00  -1.00000000000000E+00   0.00000000000000E+00   0.00000000000000E+00   1.19285280994242E-36
     -1.19285280994242E-36   0.00000000000000E+00  -5.08909069271919E-16   0.00000000000000E+00   0.00000000000000E+00
      0.00000000000000E+00   0.00000000000000E+00   3.00615604357011E-13   2.90363459284837E-20   3.00615633393357E-13
      5.57554021033210E-15  -1.00000000000000E+00  -1.00000000000000E+00   0.00000000000000E+00   0.00000000000000E+00
     -9.04664239803940E-22  -1.81172134285254E-09  -1.81172134285345E-09  -3.25302451037775E-15   0.00000000000000E+00
      0.00000000000000E+00   0.00000000000000E+00   0.00000000000000E+00   1.48872500678006E-26   1.81142072722006E-09
      1.81142072722006E-09  -1.81360663068243E-15
      9.00000000000000E-01
     -1.25000000000000E+00  -1.25000000000000E+00   0.00000000000000E+00   0.00000000000000E+00   1.23862841240345E-36
     -1.23862841240345E-36   0.00000000000000E+00  -6.62695589755674E-16   0.00000000000000E+00   0.00000000000000E+00
      0.00000000000000E+00   0.00000000000000E+00   3.00434784535037E-13  -1.56445335887934E-19   3.00434628089701E-13
      5.59601702551483E-15  -1.00000000000000E+00  -1.00000000000000E+00   0.00000000000000E+00   0.00000000000000E+00
     -9.04677547499515E-22  -3.91810373306957E-08  -3.91810373306966E-08  -3.18588121389690E-15   0.00000000000000E+00
      0.00000000000000E+00   0.00000000000000E+00   0.00000000000000E+00  -1.90626561373210E-28   3.91807368960688E-08
      3.91807368960688E-08  -1.74744022186227E-15
      1.00000000000000E+00
     -1.50000000000000E+00  -1.50000000000000E+00   0.00000000000000E+00   0.00000000000000E+00   1.18576375195206E-36
     -1.18576375195206E-36   0.00000000000000E+00  -8.16802045057729E-16   0.00000000000000E+00   0.00000000000000E+00
      0.00000000000000E+00   0.00000000000000E+00   3.00301812521962E-13   9.08849232539832E-17   3.00392697445216E-13
      5.61865553297175E-15  -1.00000000000000E+00  -1.00000000000000E+00   0.00000000000000E+00   0.00000000000000E+00
     -9.04781288997263E-22  -6.80889084657297E-07  -6.80889084657298E-07  -3.11860674013343E-15   0.00000000000000E+00
      0.00000000000000E+00   0.00000000000000E+00   0.00000000000000E+00   9.94242128815891E-26   6.80888784264606E-07
      6.80888784264606E-07  -1.68324674778059E-15
}
