DF-ISE text

Info {
  version   = 1.0
  type      = xyplot
  datasets  = [
    "time"
    "gate OuterVoltage" "gate InnerVoltage" "gate QuasiFermiPotential" "gate DisplacementCurrent" "gate eCurrent"
    "gate hCurrent" "gate TotalCurrent" "gate Charge" "substrate OuterVoltage" "substrate InnerVoltage"
    "substrate QuasiFermiPotential" "substrate DisplacementCurrent" "substrate eCurrent" "substrate hCurrent" "substrate TotalCurrent"
    "substrate Charge" "drain OuterVoltage" "drain InnerVoltage" "drain QuasiFermiPotential" "drain DisplacementCurrent"
    "drain eCurrent" "drain hCurrent" "drain TotalCurrent" "drain Charge" "source OuterVoltage"
    "source InnerVoltage" "source QuasiFermiPotential" "source DisplacementCurrent" "source eCurrent" "source hCurrent"
    "source TotalCurrent" "source Charge" ]
  functions = [
    Time
    OuterVoltage InnerVoltage QuasiFermiPotential DisplacementCurrent eCurrent
    hCurrent TotalCurrent Charge OuterVoltage InnerVoltage
    QuasiFermiPotential DisplacementCurrent eCurrent hCurrent TotalCurrent
    Charge OuterVoltage InnerVoltage QuasiFermiPotential DisplacementCurrent
    eCurrent hCurrent TotalCurrent Charge OuterVoltage
    InnerVoltage QuasiFermiPotential DisplacementCurrent eCurrent hCurrent
    TotalCurrent Charge ]
}

Data {
      0.00000000000000E+00
     -1.00000000000000E+00  -1.00000000000000E+00   0.00000000000000E+00   0.00000000000000E+00   1.64502664708897E-35
     -1.64502664708897E-35   0.00000000000000E+00  -7.53501054016785E-16   0.00000000000000E+00   0.00000000000000E+00
      0.00000000000000E+00   0.00000000000000E+00  -1.26802467467889E-20  -6.46337581410879E-15  -6.46338849435554E-15
     -3.82393322492870E-15   1.00000000000000E+00   1.00000000000000E+00   0.00000000000000E+00   0.00000000000000E+00
      6.46338003148255E-15   8.48244833328332E-21   6.46338851393088E-15   2.84494948956359E-15   0.00000000000000E+00
      0.00000000000000E+00   0.00000000000000E+00   0.00000000000000E+00  -1.95269012975162E-23  -4.84391471384535E-26
     -1.95753404446546E-23   1.73248478938190E-15
      1.00000000000000E-03
     -9.97500000000000E-01  -9.97500000000000E-01   0.00000000000000E+00   0.00000000000000E+00   1.62975248362619E-35
     -1.62975248362619E-35   0.00000000000000E+00  -7.45930147581489E-16   0.00000000000000E+00   0.00000000000000E+00
      0.00000000000000E+00   0.00000000000000E+00  -3.95825356208639E-22  -6.46253276425096E-15  -6.46253316007632E-15
     -3.82997474009280E-15   1.00000000000000E+00   1.00000000000000E+00   0.00000000000000E+00   0.00000000000000E+00
      6.46253476288640E-15   8.48245045254694E-21   6.46254324533686E-15   2.84421830382394E-15   0.00000000000000E+00
      0.00000000000000E+00   0.00000000000000E+00   0.00000000000000E+00  -1.00852416472518E-20  -1.88927484132931E-26
     -1.00852605400002E-20   1.73168658385036E-15
      2.28000000000000E-03
     -9.94300000000000E-01  -9.94300000000000E-01   0.00000000000000E+00   0.00000000000000E+00   1.63196726517334E-35
     -1.63196726517334E-35   0.00000000000000E+00  -7.36265211635545E-16   0.00000000000000E+00   0.00000000000000E+00
      0.00000000000000E+00   0.00000000000000E+00  -3.70488143147164E-21  -6.46145911971014E-15  -6.46146282459157E-15
     -3.83768110525682E-15   1.00000000000000E+00   1.00000000000000E+00   0.00000000000000E+00   0.00000000000000E+00
      6.46146158515842E-15   8.48245316691863E-21   6.46147006761159E-15   2.84328194833491E-15   0.00000000000000E+00
      0.00000000000000E+00   0.00000000000000E+00   0.00000000000000E+00  -7.24299242009361E-21  -2.75891917185381E-26
     -7.24302000928532E-21   1.73066436855746E-15
      3.91840000000000E-03
     -9.90204000000000E-01  -9.90204000000000E-01   0.00000000000000E+00   0.00000000000000E+00   1.63853229467800E-35
     -1.63853229467800E-35   0.00000000000000E+00  -7.23936461155885E-16   0.00000000000000E+00   0.00000000000000E+00
      0.00000000000000E+00   0.00000000000000E+00  -1.05204242851684E-20  -6.46009355183341E-15  -6.46010407225770E-15
     -3.84750133276160E-15   1.00000000000000E+00   1.00000000000000E+00   0.00000000000000E+00   0.00000000000000E+00
      6.46009856341835E-15   8.48245664428868E-21   6.46010704587499E-15   2.84208269761892E-15   0.00000000000000E+00
      0.00000000000000E+00   0.00000000000000E+00   0.00000000000000E+00  -2.97357835258883E-21  -3.89479137349067E-26
     -2.97361730050257E-21   1.72935509629856E-15
      6.01555200000000E-03
     -9.84961120000000E-01  -9.84961120000000E-01   0.00000000000000E+00   0.00000000000000E+00   1.65874694973014E-35
     -1.65874694973014E-35   0.00000000000000E+00  -7.08225177120957E-16   0.00000000000000E+00   0.00000000000000E+00
      0.00000000000000E+00   0.00000000000000E+00   3.08450825759872E-21  -6.45835933502581E-15  -6.45835625051755E-15
     -3.85999917254576E-15   1.00000000000000E+00   1.00000000000000E+00   0.00000000000000E+00   0.00000000000000E+00
      6.45836250805793E-15   8.48246110104712E-21   6.45837099051903E-15   2.84054648731353E-15   0.00000000000000E+00
      0.00000000000000E+00   0.00000000000000E+00   0.00000000000000E+00  -1.47399941848802E-20  -7.30945943672351E-27
     -1.47400014943397E-20   1.72767786235318E-15
      8.69990656000000E-03
     -9.78250233600000E-01  -9.78250233600000E-01   0.00000000000000E+00   0.00000000000000E+00   1.65467364384951E-35
     -1.65467364384951E-35   0.00000000000000E+00  -6.88228793597078E-16   0.00000000000000E+00   0.00000000000000E+00
      0.00000000000000E+00   0.00000000000000E+00  -7.27646906449193E-21  -6.45616083475636E-15  -6.45616811122542E-15
     -3.87587821259688E-15   1.00000000000000E+00   1.00000000000000E+00   0.00000000000000E+00   0.00000000000000E+00
      6.45616561929073E-15   8.48246681481788E-21   6.45617410175755E-15   2.83857822899856E-15   0.00000000000000E+00
      0.00000000000000E+00   0.00000000000000E+00   0.00000000000000E+00  -5.99053896440014E-21   6.84270377167480E-27
     -5.99053212169636E-21   1.72552877719540E-15
      1.21358803968000E-02
     -9.69660299008000E-01  -9.69660299008000E-01   0.00000000000000E+00   0.00000000000000E+00   1.64835812211653E-35
     -1.64835812211653E-35   0.00000000000000E+00  -6.62820508591287E-16   0.00000000000000E+00   0.00000000000000E+00
      0.00000000000000E+00   0.00000000000000E+00   8.26978344565160E-21  -6.45337919095337E-15  -6.45337092116993E-15
     -3.89600956247685E-15   1.00000000000000E+00   1.00000000000000E+00   0.00000000000000E+00   0.00000000000000E+00
      6.45338452530558E-15   8.48247413632384E-21   6.45339300777971E-15   2.83605574496026E-15   0.00000000000000E+00
      0.00000000000000E+00   0.00000000000000E+00   0.00000000000000E+00  -2.20865557631192E-20  -5.40178736390266E-26
     -2.20866097809928E-20   1.72277432610788E-15
      1.65339269079040E-02
     -9.58665182730240E-01  -9.58665182730240E-01   0.00000000000000E+00   0.00000000000000E+00   1.65720387288485E-35
     -1.65720387288485E-35   0.00000000000000E+00  -6.30604498356510E-16   0.00000000000000E+00   0.00000000000000E+00
      0.00000000000000E+00   0.00000000000000E+00   6.24279791083690E-21  -6.44986692543044E-15  -6.44986068263253E-15
     -3.92146014406771E-15   1.00000000000000E+00   1.00000000000000E+00   0.00000000000000E+00   0.00000000000000E+00
      6.44987283711265E-15   8.48248352255147E-21   6.44988131959618E-15   2.83282189546051E-15   0.00000000000000E+00
      0.00000000000000E+00   0.00000000000000E+00   0.00000000000000E+00  -2.06369900704392E-20   2.64105783716865E-26
     -2.06369636598608E-20   1.71924274696371E-15
      2.21634264421171E-02
     -9.44591433894707E-01  -9.44591433894707E-01   0.00000000000000E+00   0.00000000000000E+00   1.69300587252959E-35
     -1.69300587252959E-35   0.00000000000000E+00  -5.89869480756217E-16   0.00000000000000E+00   0.00000000000000E+00
      0.00000000000000E+00   0.00000000000000E+00   6.54601217814905E-21  -6.44544155050859E-15  -6.44543500449641E-15
     -3.95351764998619E-15   1.00000000000000E+00   1.00000000000000E+00   0.00000000000000E+00   0.00000000000000E+00
      6.44544684505923E-15   8.48249557055612E-21   6.44545532755480E-15   2.82867432815170E-15   0.00000000000000E+00
      0.00000000000000E+00   0.00000000000000E+00   0.00000000000000E+00  -2.03231665510817E-20   1.08164490995396E-25
     -2.03230583865907E-20   1.71471280259070E-15
      2.93691858459099E-02
     -9.26577035385225E-01  -9.26577035385225E-01   0.00000000000000E+00   0.00000000000000E+00   2.03577720188374E-35
     -2.03577720188374E-35   0.00000000000000E+00  -5.38545786147655E-16   0.00000000000000E+00   0.00000000000000E+00
      0.00000000000000E+00   0.00000000000000E+00  -1.89915016514740E-21  -6.43988061115337E-15  -6.43988251030354E-15
     -3.99370541553992E-15   1.00000000000000E+00   1.00000000000000E+00   0.00000000000000E+00   0.00000000000000E+00
      6.43988335243548E-15   8.48251099640401E-21   6.43989183494648E-15   2.82335208481509E-15   0.00000000000000E+00
      0.00000000000000E+00   0.00000000000000E+00   0.00000000000000E+00  -9.32522541411036E-21   5.82481065431980E-25
     -9.32464293304493E-21   1.70889911687248E-15
      3.85925578827647E-02
     -9.03518605293088E-01  -9.03518605293088E-01   0.00000000000000E+00   0.00000000000000E+00   1.63496793510033E-35
     -1.63496793510033E-35   0.00000000000000E+00  -4.74173662160168E-16   0.00000000000000E+00   0.00000000000000E+00
      0.00000000000000E+00   0.00000000000000E+00   1.20378852851798E-21  -6.43292876036329E-15  -6.43292755657476E-15
     -4.04377734418494E-15   1.00000000000000E+00   1.00000000000000E+00   0.00000000000000E+00   0.00000000000000E+00
      6.43293370561398E-15   8.48253084195285E-21   6.43294218814482E-15   2.81651803623764E-15   0.00000000000000E+00
      0.00000000000000E+00   0.00000000000000E+00   0.00000000000000E+00  -1.46315730991993E-20   3.01973208820355E-27
     -1.46315700794672E-20   1.70143297010746E-15
      5.02140066492017E-02
     -8.74464983376996E-01  -8.74464983376996E-01   0.00000000000000E+00   0.00000000000000E+00   1.64646389689008E-35
     -1.64646389689008E-35   0.00000000000000E+00  -3.95127394454546E-16   0.00000000000000E+00   0.00000000000000E+00
      0.00000000000000E+00   0.00000000000000E+00  -6.44059222187496E-21  -6.42446575358904E-15  -6.42447219418126E-15
     -4.10473324643814E-15   1.00000000000000E+00   1.00000000000000E+00   0.00000000000000E+00   0.00000000000000E+00
      6.42447107523899E-15   8.48255586993711E-21   6.42447955779486E-15   2.80787327663022E-15   0.00000000000000E+00
      0.00000000000000E+00   0.00000000000000E+00   0.00000000000000E+00  -7.36361814191792E-21   4.53885972552466E-27
     -7.36361360305820E-21   1.69198736426246E-15
      6.48570320949124E-02
     -8.37857419762719E-01  -8.37857419762719E-01   0.00000000000000E+00   0.00000000000000E+00   1.62888846235115E-35
     -1.62888846235115E-35   0.00000000000000E+00  -2.98662864168674E-16   0.00000000000000E+00   0.00000000000000E+00
      0.00000000000000E+00   0.00000000000000E+00  -9.37514887794697E-21  -6.41432964995106E-15  -6.41433902509993E-15
     -4.17829297750731E-15   1.00000000000000E+00   1.00000000000000E+00   0.00000000000000E+00   0.00000000000000E+00
      6.41433475587947E-15   8.48258761206564E-21   6.41434323846708E-15   2.79692840885932E-15   0.00000000000000E+00
      0.00000000000000E+00   0.00000000000000E+00   0.00000000000000E+00  -4.21333852986951E-21  -2.86028624298884E-26
     -4.21336713273194E-21   1.68002743281668E-15
      8.30143836475936E-02
     -7.92464040881016E-01  -7.92464040881016E-01   0.00000000000000E+00   0.00000000000000E+00   1.61301465056619E-35
     -1.61301465056619E-35   0.00000000000000E+00  -1.83560810185351E-16   0.00000000000000E+00   0.00000000000000E+00
      0.00000000000000E+00   0.00000000000000E+00  -7.38870361219588E-22  -6.40254587064204E-15  -6.40254660951240E-15
     -4.26482811856781E-15   1.00000000000000E+00   1.00000000000000E+00   0.00000000000000E+00   0.00000000000000E+00
      6.40255222401156E-15   8.48262719763206E-21   6.40256070663875E-15   2.78327795541650E-15   0.00000000000000E+00
      0.00000000000000E+00   0.00000000000000E+00   0.00000000000000E+00  -1.40971515364542E-20   2.51704474075708E-26
     -1.40971263660068E-20   1.66511097333668E-15
      9.15071918237968E-02
     -7.71232020440508E-01  -7.71232020440508E-01   0.00000000000000E+00   0.00000000000000E+00   1.63088919760974E-35
     -1.63088919760974E-35   0.00000000000000E+00  -1.31307256382302E-16   0.00000000000000E+00   0.00000000000000E+00
      0.00000000000000E+00   0.00000000000000E+00   2.31405918287625E-21  -6.39732942364546E-15  -6.39732710958627E-15
     -4.30365961256295E-15   1.00000000000000E+00   1.00000000000000E+00   0.00000000000000E+00   0.00000000000000E+00
      6.39733820332545E-15   8.48264578928486E-21   6.39734668597124E-15   2.77686404799453E-15   0.00000000000000E+00
      0.00000000000000E+00   0.00000000000000E+00   0.00000000000000E+00  -1.95763765522690E-20  -8.39724825435249E-27
     -1.95763849495173E-20   1.65810282095072E-15
      1.00000000000000E-01
     -7.50000000000000E-01  -7.50000000000000E-01   0.00000000000000E+00   0.00000000000000E+00   1.63103396685191E-35
     -1.63103396685191E-35   0.00000000000000E+00  -7.99904182701266E-17   0.00000000000000E+00   0.00000000000000E+00
      0.00000000000000E+00   0.00000000000000E+00  -3.36332949472973E-21  -6.39234200950715E-15  -6.39234537283665E-15
     -4.34151714536082E-15   1.00000000000000E+00   1.00000000000000E+00   0.00000000000000E+00   0.00000000000000E+00
      6.39234738590802E-15   8.48266446632583E-21   6.39235586857249E-15   2.77043199772459E-15   0.00000000000000E+00
      0.00000000000000E+00   0.00000000000000E+00   0.00000000000000E+00  -1.04957236688711E-20  -1.21697130713466E-26
     -1.04957358385842E-20   1.65107556590635E-15
      1.10700938302016E-01
     -7.23247654244960E-01  -7.23247654244960E-01   0.00000000000000E+00   0.00000000000000E+00   1.59112482440681E-35
     -1.59112482440681E-35   0.00000000000000E+00  -1.65864335578189E-17   0.00000000000000E+00   0.00000000000000E+00
      0.00000000000000E+00   0.00000000000000E+00  -1.75417196567199E-21  -6.38648338057764E-15  -6.38648513474961E-15
     -4.38791067409599E-15   1.00000000000000E+00   1.00000000000000E+00   0.00000000000000E+00   0.00000000000000E+00
      6.38649308217897E-15   8.48268811103639E-21   6.38650156486708E-15   2.76230222512883E-15   0.00000000000000E+00
      0.00000000000000E+00   0.00000000000000E+00   0.00000000000000E+00  -1.64301481970710E-20   3.07196171094563E-26
     -1.64301174774538E-20   1.64219488252499E-15
      1.24184120562556E-01
     -6.89539698593609E-01  -6.89539698593609E-01   0.00000000000000E+00   0.00000000000000E+00   1.61116326824598E-35
     -1.61116326824598E-35   0.00000000000000E+00   6.14481027460750E-17   0.00000000000000E+00   0.00000000000000E+00
      0.00000000000000E+00   0.00000000000000E+00   3.35657187721777E-21  -6.37999551436395E-15  -6.37999215779207E-15
     -4.44443222160555E-15   1.00000000000000E+00   1.00000000000000E+00   0.00000000000000E+00   0.00000000000000E+00
      6.38001186199420E-15   8.48271807247666E-21   6.38002034471227E-15   2.75201917620588E-15   0.00000000000000E+00
      0.00000000000000E+00   0.00000000000000E+00   0.00000000000000E+00  -2.81869129198862E-20  -7.27195839361070E-27
     -2.81869201918446E-20   1.63096494265359E-15
      1.41172930210837E-01
     -6.47067674472908E-01  -6.47067674472908E-01   0.00000000000000E+00   0.00000000000000E+00   1.61779918333716E-35
     -1.61779918333716E-35   0.00000000000000E+00   1.57081309117052E-16   0.00000000000000E+00   0.00000000000000E+00
      0.00000000000000E+00   0.00000000000000E+00   7.94093532788795E-21  -6.37354516036514E-15  -6.37353721942981E-15
     -4.51283668432182E-15   1.00000000000000E+00   1.00000000000000E+00   0.00000000000000E+00   0.00000000000000E+00
      6.37356914591413E-15   8.48275607288773E-21   6.37357762867020E-15   2.73900116955076E-15   0.00000000000000E+00
      0.00000000000000E+00   0.00000000000000E+00   0.00000000000000E+00  -4.04092325630201E-20  -7.83007486850348E-27
     -4.04092403930950E-20   1.61675420565401E-15
      1.62578830367671E-01
     -5.93552924080823E-01  -5.93552924080823E-01   0.00000000000000E+00   0.00000000000000E+00   1.63081230756918E-35
     -1.63081230756918E-35   0.00000000000000E+00   2.73766873946729E-16   0.00000000000000E+00   0.00000000000000E+00
      0.00000000000000E+00   0.00000000000000E+00  -1.30218448038084E-20  -6.36816309352205E-15  -6.36817611536685E-15
     -4.59502765600144E-15   1.00000000000000E+00   1.00000000000000E+00   0.00000000000000E+00   0.00000000000000E+00
      6.36821705528198E-15   8.48280418244602E-21   6.36822553808616E-15   2.72250347610064E-15   0.00000000000000E+00
      0.00000000000000E+00   0.00000000000000E+00   0.00000000000000E+00  -4.94227174252281E-20  -1.88225704491343E-27
     -4.94227193074852E-20   1.59875730595406E-15
      1.89550264565281E-01
     -5.26124338586797E-01  -5.26124338586797E-01   0.00000000000000E+00   0.00000000000000E+00   1.62998581673886E-35
     -1.62998581673886E-35   0.00000000000000E+00   4.15568227363173E-16   0.00000000000000E+00   0.00000000000000E+00
      0.00000000000000E+00   0.00000000000000E+00   1.53430556549156E-22  -6.36459203751328E-15  -6.36459188408272E-15
     -4.69308367485697E-15   1.00000000000000E+00   1.00000000000000E+00   0.00000000000000E+00   0.00000000000000E+00
      6.36474666362342E-15   8.48286509747192E-21   6.36475514648851E-15   2.70156931583297E-15   0.00000000000000E+00
      0.00000000000000E+00   0.00000000000000E+00   0.00000000000000E+00  -1.63262405349468E-19  -4.56675920650755E-28
     -1.63262405806144E-19   1.57594613166084E-15
      2.00000000000000E-01
     -5.00000000000000E-01  -5.00000000000000E-01   0.00000000000000E+00   0.00000000000000E+00   1.62742903082779E-35
     -1.62742903082779E-35   0.00000000000000E+00   4.69145920234406E-16   0.00000000000000E+00   0.00000000000000E+00
      0.00000000000000E+00   0.00000000000000E+00  -5.87084704910775E-21  -6.36360458782059E-15  -6.36361045866764E-15
     -4.72963134479234E-15   1.00000000000000E+00   1.00000000000000E+00   0.00000000000000E+00   0.00000000000000E+00
      6.36385457027958E-15   8.48288929537485E-21   6.36386305316887E-15   2.69341527415229E-15   0.00000000000000E+00
      0.00000000000000E+00   0.00000000000000E+00   0.00000000000000E+00  -2.52594529154291E-19   2.79178470399043E-26
     -2.52594501236444E-19   1.56707015040563E-15
      2.33984007088989E-01
     -4.15039982277527E-01  -4.15039982277527E-01   0.00000000000000E+00   0.00000000000000E+00   1.63617877245888E-35
     -1.63617877245888E-35   0.00000000000000E+00   6.38933829295801E-16   0.00000000000000E+00   0.00000000000000E+00
      0.00000000000000E+00   0.00000000000000E+00  -2.76110938133666E-21  -6.36018875862451E-15  -6.36019151973390E-15
     -4.84373131232893E-15   1.00000000000000E+00   1.00000000000000E+00   0.00000000000000E+00   0.00000000000000E+00
      6.36142522878252E-15   8.48296738387070E-21   6.36143371174991E-15   2.66673103012873E-15   0.00000000000000E+00
      0.00000000000000E+00   0.00000000000000E+00   0.00000000000000E+00  -1.24219201884112E-18   2.82557558827534E-27
     -1.24219201601554E-18   1.53806645290441E-15
      2.76803856021116E-01
     -3.07990359947211E-01  -3.07990359947211E-01   0.00000000000000E+00   0.00000000000000E+00   1.62933751599541E-35
     -1.62933751599541E-35   0.00000000000000E+00   8.44724203413838E-16   0.00000000000000E+00   0.00000000000000E+00
      0.00000000000000E+00   0.00000000000000E+00   9.18783758846707E-21  -6.36376321565896E-15  -6.36375402782137E-15
     -4.97870762975887E-15   1.00000000000000E+00   1.00000000000000E+00   0.00000000000000E+00   0.00000000000000E+00
      6.37491069748609E-15   8.48306699809042E-21   6.37491918055309E-15   2.63274376937171E-15   0.00000000000000E+00
      0.00000000000000E+00   0.00000000000000E+00   0.00000000000000E+00  -1.11651527294526E-17  -2.27900680751423E-27
     -1.11651527317316E-17   1.50123965697332E-15
      3.00000000000000E-01
     -2.50000000000000E-01  -2.50000000000000E-01   0.00000000000000E+00   0.00000000000000E+00   1.65444347917675E-35
     -1.65444347917675E-35   0.00000000000000E+00   9.53017019938982E-16   0.00000000000000E+00   0.00000000000000E+00
      0.00000000000000E+00   0.00000000000000E+00  -6.00956804704979E-21  -6.38368631465574E-15  -6.38369232422378E-15
     -5.04833880885350E-15   1.00000000000000E+00   1.00000000000000E+00   0.00000000000000E+00   0.00000000000000E+00
      6.42304308998407E-15   8.48312125456151E-21   6.42305157310532E-15   2.61415732393031E-15   0.00000000000000E+00
      0.00000000000000E+00   0.00000000000000E+00   0.00000000000000E+00  -3.93592488935722E-17   1.20403398547991E-26
     -3.93592488815319E-17   1.48116446498419E-15
      3.53096612675837E-01
     -1.17258468310408E-01  -1.17258468310408E-01   0.00000000000000E+00   0.00000000000000E+00   1.63245143059343E-35
     -1.63245143059343E-35   0.00000000000000E+00   1.19385440693185E-15   0.00000000000000E+00   0.00000000000000E+00
      0.00000000000000E+00   0.00000000000000E+00   5.10620542420418E-21  -6.54681828018766E-15  -6.54681317398224E-15
     -5.19985782351177E-15   1.00000000000000E+00   1.00000000000000E+00   0.00000000000000E+00   0.00000000000000E+00
      7.41605177659435E-15   8.48324723053180E-21   7.41606025984158E-15   2.57112279531901E-15   0.00000000000000E+00
      0.00000000000000E+00   0.00000000000000E+00   0.00000000000000E+00  -8.69247085843811E-16  -1.55238444250032E-26
     -8.69247085859335E-16   1.43488062126090E-15
      4.00000000000000E-01
      0.00000000000000E+00   0.00000000000000E+00   0.00000000000000E+00   0.00000000000000E+00   1.63253058839374E-35
     -1.63253058839374E-35   0.00000000000000E+00   1.39972665156848E-15   0.00000000000000E+00   0.00000000000000E+00
      0.00000000000000E+00   0.00000000000000E+00  -3.11700517345897E-21  -6.66400201648429E-15  -6.66400513348946E-15
     -5.32583168560638E-15   1.00000000000000E+00   1.00000000000000E+00   0.00000000000000E+00   0.00000000000000E+00
      2.11279000759439E-14   8.48335949995972E-21   2.11279085593034E-14   2.53250832280614E-15   0.00000000000000E+00
      0.00000000000000E+00   0.00000000000000E+00   0.00000000000000E+00  -1.44639034257999E-14  -1.40677727340377E-26
     -1.44639034258140E-14   1.39359671123176E-15
      4.53096612675837E-01
      1.32741531689592E-01   1.32741531689592E-01   0.00000000000000E+00   0.00000000000000E+00   1.65901901614535E-35
     -1.65901901614535E-35   0.00000000000000E+00   1.62644081491733E-15   0.00000000000000E+00   0.00000000000000E+00
      0.00000000000000E+00   0.00000000000000E+00   4.98371623958297E-22  -6.70678451858552E-15  -6.70678402021390E-15
     -5.46095019645836E-15   1.00000000000000E+00   1.00000000000000E+00   0.00000000000000E+00   0.00000000000000E+00
      3.76031163241221E-13   8.48348811878917E-21   3.76031171724709E-13   2.48809886453306E-15   0.00000000000000E+00
      0.00000000000000E+00   0.00000000000000E+00   0.00000000000000E+00  -3.69324387704499E-13   4.11582882916324E-27
     -3.69324387704495E-13   1.34641051700797E-15
      5.00000000000000E-01
      2.50000000000000E-01   2.50000000000000E-01   0.00000000000000E+00   0.00000000000000E+00   1.65403859493580E-35
     -1.65403859493580E-35   0.00000000000000E+00   1.82205719999530E-15   0.00000000000000E+00   0.00000000000000E+00
      0.00000000000000E+00   0.00000000000000E+00   3.93033322373774E-20  -6.68837639416039E-15  -6.68833709082815E-15
     -5.57478459961625E-15   1.00000000000000E+00   1.00000000000000E+00   0.00000000000000E+00   0.00000000000000E+00
      6.99849953719594E-12   8.48360293508633E-21   6.99849954567954E-12   2.44828319064902E-15   0.00000000000000E+00
      0.00000000000000E+00   0.00000000000000E+00   0.00000000000000E+00  -6.99181120858875E-12   3.15263902268945E-27
     -6.99181120858875E-12   1.30444420897194E-15
      5.65839799718037E-01
      4.14599499295094E-01   4.14599499295094E-01   0.00000000000000E+00   0.00000000000000E+00   6.66462386961044E-36
     -6.66462386961044E-36   0.00000000000000E+00   2.09071691317076E-15   0.00000000000000E+00   0.00000000000000E+00
      0.00000000000000E+00   0.00000000000000E+00   8.99074470601759E-20  -6.66649059859456E-15  -6.66640069114750E-15
     -5.72812479823668E-15   1.00000000000000E+00   1.00000000000000E+00   0.00000000000000E+00   0.00000000000000E+00
      4.83989411160457E-10   8.48376589395683E-21   4.83989411168940E-10   2.39158193756295E-15   0.00000000000000E+00
      0.00000000000000E+00   0.00000000000000E+00   0.00000000000000E+00  -4.83982744768251E-10  -1.66624007420706E-27
     -4.83982744768251E-10   1.24582594750295E-15
      6.00000000000000E-01
      5.00000000000000E-01   5.00000000000000E-01   0.00000000000000E+00   0.00000000000000E+00   1.63742691246862E-35
     -1.63742691246862E-35   0.00000000000000E+00   2.22825281191421E-15   0.00000000000000E+00   0.00000000000000E+00
      0.00000000000000E+00   0.00000000000000E+00   1.64758541388381E-20  -6.66331356096435E-15  -6.66329708511022E-15
     -5.80629472232101E-15   1.00000000000000E+00   1.00000000000000E+00   0.00000000000000E+00   0.00000000000000E+00
      4.54127189508887E-09   8.48385183945755E-21   4.54127189509736E-09   2.36184752062079E-15   0.00000000000000E+00
      0.00000000000000E+00   0.00000000000000E+00   0.00000000000000E+00  -4.54126523180030E-09  -1.35316226478384E-27
     -4.54126523180030E-09   1.21619438978600E-15
      6.80324555656006E-01
      7.00811389140014E-01   7.00811389140014E-01   0.00000000000000E+00   0.00000000000000E+00   1.66648598456662E-35
     -1.66648598456662E-35   0.00000000000000E+00   2.57088272693560E-15   0.00000000000000E+00   0.00000000000000E+00
      0.00000000000000E+00   0.00000000000000E+00  -2.05025384008102E-20  -6.65859390912804E-15  -6.65861441166644E-15
     -6.01376620856082E-15   1.00000000000000E+00   1.00000000000000E+00   0.00000000000000E+00   0.00000000000000E+00
      6.97300776658308E-07   8.48416841353650E-21   6.97300776658316E-07   2.29128211314707E-15   0.00000000000000E+00
      0.00000000000000E+00   0.00000000000000E+00   0.00000000000000E+00  -6.97300769999708E-07   6.99789888999471E-27
     -6.97300769999708E-07   1.15160136847816E-15
      7.00000000000000E-01
      7.50000000000000E-01   7.50000000000000E-01   0.00000000000000E+00   0.00000000000000E+00   6.93389187591793E-35
     -6.93389187591793E-35   0.00000000000000E+00   2.67343618641002E-15   0.00000000000000E+00   0.00000000000000E+00
      0.00000000000000E+00   0.00000000000000E+00  -1.28033558424567E-16  -6.72901308429262E-15  -6.85704664271718E-15
     -6.08431140575735E-15   1.00000000000000E+00   1.00000000000000E+00   0.00000000000000E+00   0.00000000000000E+00
      1.76053350497198E-06   8.48439244123566E-21   1.76053350497199E-06   2.27391078697108E-15   0.00000000000000E+00
      0.00000000000000E+00   0.00000000000000E+00   0.00000000000000E+00  -1.76053349811495E-06  -5.12574888251800E-26
     -1.76053349811495E-06   1.13696443237624E-15
      7.47391487837043E-01
      8.68478719592608E-01   8.68478719592608E-01   0.00000000000000E+00   0.00000000000000E+00   1.69457690795614E-35
     -1.69457690795614E-35   0.00000000000000E+00   2.95544796028401E-15   0.00000000000000E+00   0.00000000000000E+00
      0.00000000000000E+00   0.00000000000000E+00   3.31847497103342E-19  -6.92397535939180E-15  -6.92364351189470E-15
     -6.29037776392916E-15   1.00000000000000E+00   1.00000000000000E+00   0.00000000000000E+00   0.00000000000000E+00
      8.05017453299328E-06   8.48554422887791E-21   8.05017453299329E-06   2.23206615434875E-15   0.00000000000000E+00
      0.00000000000000E+00   0.00000000000000E+00   0.00000000000000E+00  -8.05017452606972E-06  -3.83727517261739E-26
     -8.05017452606972E-06   1.10286364929640E-15
      8.00000000000000E-01
      1.00000000000000E+00   1.00000000000000E+00   0.00000000000000E+00   0.00000000000000E+00   1.77709931345469E-35
     -1.77709931345469E-35   0.00000000000000E+00   3.29884234644456E-15   0.00000000000000E+00   0.00000000000000E+00
      0.00000000000000E+00   0.00000000000000E+00   4.01493884706208E-19  -7.08799058461143E-15  -7.08758909072673E-15
     -6.55081107128119E-15   1.00000000000000E+00   1.00000000000000E+00   0.00000000000000E+00   0.00000000000000E+00
      2.18800542221283E-05   8.48795180273247E-21   2.18800542221283E-05   2.18570479203523E-15   0.00000000000000E+00
      0.00000000000000E+00   0.00000000000000E+00   0.00000000000000E+00  -2.18800542150408E-05  -2.25092677767025E-25
     -2.18800542150408E-05   1.06626393280142E-15
      8.54974125890970E-01
      1.13743531472743E+00   1.13743531472743E+00   0.00000000000000E+00   0.00000000000000E+00   2.03960684269468E-35
     -2.03960684269468E-35   0.00000000000000E+00   3.67282211600103E-15   0.00000000000000E+00   0.00000000000000E+00
      0.00000000000000E+00   0.00000000000000E+00  -1.32640593469956E-18  -7.21242126040018E-15  -7.21374766633488E-15
     -6.83922904333320E-15   1.00000000000000E+00   1.00000000000000E+00   0.00000000000000E+00   0.00000000000000E+00
      4.32873387514123E-05   8.49161587425081E-21   4.32873387514123E-05   2.13739516827561E-15   0.00000000000000E+00
      0.00000000000000E+00   0.00000000000000E+00   0.00000000000000E+00  -4.32873387441987E-05  -3.70456046428785E-25
     -4.32873387441987E-05   1.02901175905658E-15
      9.00000000000000E-01
      1.25000000000000E+00   1.25000000000000E+00   0.00000000000000E+00   0.00000000000000E+00   2.71995075429201E-35