DF-ISE text

Info {
  version   = 1.0
  type      = xyplot
  datasets  = [
    "time"
    "gate OuterVoltage" "gate InnerVoltage" "gate QuasiFermiPotential" "gate DisplacementCurrent" "gate eCurrent"
    "gate hCurrent" "gate TotalCurrent" "gate Charge" "substrate OuterVoltage" "substrate InnerVoltage"
    "substrate QuasiFermiPotential" "substrate DisplacementCurrent" "substrate eCurrent" "substrate hCurrent" "substrate TotalCurrent"
    "substrate Charge" "drain OuterVoltage" "drain InnerVoltage" "drain QuasiFermiPotential" "drain DisplacementCurrent"
    "drain eCurrent" "drain hCurrent" "drain TotalCurrent" "drain Charge" "source OuterVoltage"
    "source InnerVoltage" "source QuasiFermiPotential" "source DisplacementCurrent" "source eCurrent" "source hCurrent"
    "source TotalCurrent" "source Charge" ]
  functions = [
    Time
    OuterVoltage InnerVoltage QuasiFermiPotential DisplacementCurrent eCurrent
    hCurrent TotalCurrent Charge OuterVoltage InnerVoltage
    QuasiFermiPotential DisplacementCurrent eCurrent hCurrent TotalCurrent
    Charge OuterVoltage InnerVoltage QuasiFermiPotential DisplacementCurrent
    eCurrent hCurrent TotalCurrent Charge OuterVoltage
    InnerVoltage QuasiFermiPotential DisplacementCurrent eCurrent hCurrent
    TotalCurrent Charge ]
}

Data {
      0.00000000000000E+00
     -1.00000000000000E+00  -1.00000000000000E+00   0.00000000000000E+00   0.00000000000000E+00   1.58716265756533E-36
     -1.58716265756533E-36   0.00000000000000E+00  -7.66805233800875E-16   0.00000000000000E+00   0.00000000000000E+00
      0.00000000000000E+00   0.00000000000000E+00   2.58366614921812E-19  -1.05180329943117E-14  -1.05177746276967E-14
     -7.72861765950351E-15   1.00000000000000E+00   1.00000000000000E+00   0.00000000000000E+00   0.00000000000000E+00
      5.98498663339830E-06   8.56667938333662E-21   5.98498663339831E-06   5.28435169432425E-15   0.00000000000000E+00
      0.00000000000000E+00   0.00000000000000E+00   0.00000000000000E+00  -5.98498662288055E-06  -3.88247161020190E-26
     -5.98498662288055E-06   3.21107119898013E-15
      1.00000000000000E-03
     -9.97500000000000E-01  -9.97500000000000E-01   0.00000000000000E+00   0.00000000000000E+00   1.59790412198039E-36
     -1.59790412198039E-36   0.00000000000000E+00  -7.65509238584634E-16   0.00000000000000E+00   0.00000000000000E+00
      0.00000000000000E+00   0.00000000000000E+00   2.05414165608825E-19  -1.05185286166534E-14  -1.05183232024878E-14
     -7.72865969216800E-15   1.00000000000000E+00   1.00000000000000E+00   0.00000000000000E+00   0.00000000000000E+00
      6.04778643844474E-06   8.56668993056786E-21   6.04778643844475E-06   5.28371158159892E-15   0.00000000000000E+00
      0.00000000000000E+00   0.00000000000000E+00   0.00000000000000E+00  -6.04778642792646E-06  -4.09921817630891E-26
     -6.04778642792646E-06   3.21045734915372E-15
      2.28000000000000E-03
     -9.94300000000000E-01  -9.94300000000000E-01   0.00000000000000E+00   0.00000000000000E+00   2.83999877966556E-36
     -2.83999877966556E-36   0.00000000000000E+00  -7.63850344186660E-16   0.00000000000000E+00   0.00000000000000E+00
      0.00000000000000E+00   0.00000000000000E+00   5.82302464972541E-14  -1.05191699672439E-14   4.77110765300102E-14
     -7.72871370564492E-15   1.00000000000000E+00   1.00000000000000E+00   0.00000000000000E+00   0.00000000000000E+00
      6.12897879463214E-06   8.56670037839233E-21   6.12897879463215E-06   5.28289196129595E-15   0.00000000000000E+00
      0.00000000000000E+00   0.00000000000000E+00   0.00000000000000E+00  -6.12897884234326E-06  -5.48594146984120E-25
     -6.12897884234326E-06   3.20967208853566E-15
      3.94400000000000E-03
     -9.90140000000000E-01  -9.90140000000000E-01   0.00000000000000E+00   0.00000000000000E+00   5.20144583160749E-36
     -5.20144583160749E-36   0.00000000000000E+00  -7.61693746960685E-16   0.00000000000000E+00   0.00000000000000E+00
      0.00000000000000E+00   0.00000000000000E+00   1.66257667579658E-13  -1.05200154633718E-14   1.55737652116287E-13
     -7.72878428056285E-15   1.00000000000000E+00   1.00000000000000E+00   0.00000000000000E+00   0.00000000000000E+00
      6.23589665632557E-06   8.56671243327518E-21   6.23589665632558E-06   5.28182598809668E-15   0.00000000000000E+00
      0.00000000000000E+00   0.00000000000000E+00   0.00000000000000E+00  -6.23589681206326E-06  -1.41695029626672E-24
     -6.23589681206326E-06   3.20865203942686E-15
      6.10720000000000E-03
     -9.84732000000000E-01  -9.84732000000000E-01   0.00000000000000E+00   0.00000000000000E+00   1.20595119712680E-35
     -1.20595119712680E-35   0.00000000000000E+00  -7.58890112107040E-16   0.00000000000000E+00   0.00000000000000E+00
      0.00000000000000E+00   0.00000000000000E+00   4.82949891262863E-13  -1.05211345928173E-14   4.72428756670046E-13
     -7.72887663652166E-15   1.00000000000000E+00   1.00000000000000E+00   0.00000000000000E+00   0.00000000000000E+00
      6.37722432712689E-06   8.56671891562038E-21   6.37722432712690E-06   5.28043942641834E-15   0.00000000000000E+00
      0.00000000000000E+00   0.00000000000000E+00   0.00000000000000E+00  -6.37722479955570E-06  -3.97041170275417E-24
     -6.37722479955570E-06   3.20732732221038E-15
      8.91936000000000E-03
     -9.77701600000000E-01  -9.77701600000000E-01   0.00000000000000E+00   0.00000000000000E+00   1.61377592083083E-36
     -1.61377592083083E-36   0.00000000000000E+00  -7.55245287855040E-16   0.00000000000000E+00   0.00000000000000E+00
      0.00000000000000E+00   0.00000000000000E+00  -2.58650232131740E-19  -1.05226235593953E-14  -1.05228822096275E-14
     -7.72899773777623E-15   1.00000000000000E+00   1.00000000000000E+00   0.00000000000000E+00   0.00000000000000E+00
      6.56494559944634E-06   8.56677674554297E-21   6.56494559944635E-06   5.27863553334456E-15   0.00000000000000E+00
      0.00000000000000E+00   0.00000000000000E+00   0.00000000000000E+00  -6.56494558892350E-06  -5.57013055663877E-26
     -6.56494558892350E-06   3.20560749228670E-15
      1.25189248000000E-02
     -9.68702688000000E-01  -9.68702688000000E-01   0.00000000000000E+00   0.00000000000000E+00   1.58320205883286E-36
     -1.58320205883286E-36   0.00000000000000E+00  -7.50579749070661E-16   0.00000000000000E+00   0.00000000000000E+00
      0.00000000000000E+00   0.00000000000000E+00   1.35866096248726E-19  -1.05245863068484E-14  -1.05244504407521E-14
     -7.72915448089832E-15   1.00000000000000E+00   1.00000000000000E+00   0.00000000000000E+00   0.00000000000000E+00
      6.81192420743710E-06   8.56681817997823E-21   6.81192420743711E-06   5.27632426694986E-15   0.00000000000000E+00
      0.00000000000000E+00   0.00000000000000E+00   0.00000000000000E+00  -6.81192419691269E-06  -1.00408009946749E-25
     -6.81192419691269E-06   3.20340996301913E-15
      1.71263677440000E-02
     -9.57184080640000E-01  -9.57184080640000E-01   0.00000000000000E+00   0.00000000000000E+00   1.55336589261922E-36
     -1.55336589261922E-36   0.00000000000000E+00  -7.44607589799353E-16   0.00000000000000E+00   0.00000000000000E+00
      0.00000000000000E+00   0.00000000000000E+00  -8.25237803711905E-19  -1.05271931448717E-14  -1.05280183826754E-14
     -7.72935799673759E-15   1.00000000000000E+00   1.00000000000000E+00   0.00000000000000E+00   0.00000000000000E+00
      7.13925095008190E-06   8.56687307140431E-21   7.13925095008191E-06   5.27336203045435E-15   0.00000000000000E+00
      0.00000000000000E+00   0.00000000000000E+00   0.00000000000000E+00  -7.13925093955391E-06  -3.44213046103882E-26
     -7.13925093955391E-06   3.20060355608259E-15
      2.30238947123200E-02
     -9.42440263219200E-01  -9.42440263219200E-01   0.00000000000000E+00   0.00000000000000E+00   1.55736646560111E-36
     -1.55736646560111E-36   0.00000000000000E+00  -7.36962783015647E-16   0.00000000000000E+00   0.00000000000000E+00
      0.00000000000000E+00   0.00000000000000E+00  -1.66010951920400E-18  -1.05306873275113E-14  -1.05323474370305E-14
     -7.72962330707029E-15   1.00000000000000E+00   1.00000000000000E+00   0.00000000000000E+00   0.00000000000000E+00
      7.57701690373729E-06   8.56694644749505E-21   7.57701690373730E-06   5.26956396650057E-15   0.00000000000000E+00
      0.00000000000000E+00   0.00000000000000E+00   0.00000000000000E+00  -7.57701689320497E-06  -7.71127567415275E-26
     -7.57701689320497E-06   3.19702212358538E-15
      3.05727292317696E-02
     -9.23568176920576E-01  -9.23568176920576E-01   0.00000000000000E+00   0.00000000000000E+00   1.58891089133104E-36
     -1.58891089133104E-36   0.00000000000000E+00  -7.27176700805654E-16   0.00000000000000E+00   0.00000000000000E+00
      0.00000000000000E+00   0.00000000000000E+00  -1.57164335640262E-17  -1.05354230843616E-14  -1.05511395179257E-14
     -7.72997097151474E-15   1.00000000000000E+00   1.00000000000000E+00   0.00000000000000E+00   0.00000000000000E+00
      8.16910069089041E-06   8.56704563036266E-21   8.16910069089042E-06   5.26469163543654E-15   0.00000000000000E+00
      0.00000000000000E+00   0.00000000000000E+00   0.00000000000000E+00  -8.16910068033933E-06  -7.27770596479006E-26
     -8.16910068033933E-06   3.19245603688387E-15
      4.02352374166651E-02
     -8.99411906458337E-01  -8.99411906458337E-01   0.00000000000000E+00   0.00000000000000E+00   1.57588844598841E-36
     -1.57588844598841E-36   0.00000000000000E+00  -7.14649310629030E-16   0.00000000000000E+00   0.00000000000000E+00
      0.00000000000000E+00   0.00000000000000E+00  -1.24149456791683E-16  -1.05419259944159E-14  -1.06660754512075E-14
     -7.73042959029604E-15   1.00000000000000E+00   1.00000000000000E+00   0.00000000000000E+00   0.00000000000000E+00
      8.98092176416963E-06   8.56718152414125E-21   8.98092176416964E-06   5.25843670418557E-15   0.00000000000000E+00
      0.00000000000000E+00   0.00000000000000E+00   0.00000000000000E+00  -8.98092175350360E-06  -9.00922094016922E-26
     -8.98092175350360E-06   3.18664219673949E-15
      5.26032478933313E-02
     -8.68491880266672E-01  -8.68491880266672E-01   0.00000000000000E+00   0.00000000000000E+00   1.56308360187341E-36
     -1.56308360187341E-36   0.00000000000000E+00  -6.98612274851988E-16   0.00000000000000E+00   0.00000000000000E+00
      0.00000000000000E+00   0.00000000000000E+00  -9.96374946724772E-16  -1.05509897398059E-14  -1.15473646865307E-14
     -7.73103961564758E-15   1.00000000000000E+00   1.00000000000000E+00   0.00000000000000E+00   0.00000000000000E+00
      1.01123409610029E-05   8.56737073853261E-21   1.01123409610029E-05   5.25039901653169E-15   0.00000000000000E+00
      0.00000000000000E+00   0.00000000000000E+00   0.00000000000000E+00  -1.01123409494556E-05  -6.28328165469952E-26
     -1.01123409494556E-05   3.17925287396790E-15
      6.84343013034641E-02
     -8.28914246741340E-01  -8.28914246741340E-01   0.00000000000000E+00   0.00000000000000E+00   1.60274786440882E-36
     -1.60274786440882E-36   0.00000000000000E+00  -6.78081638876990E-16   0.00000000000000E+00   0.00000000000000E+00
      0.00000000000000E+00   0.00000000000000E+00  -8.15409533248645E-15  -1.05638306232900E-14  -1.87179259557764E-14
     -7.73185946757433E-15   1.00000000000000E+00   1.00000000000000E+00   0.00000000000000E+00   0.00000000000000E+00
      1.17193683351408E-05   8.56763903210703E-21   1.17193683351408E-05   5.24005681035820E-15   0.00000000000000E+00
      0.00000000000000E+00   0.00000000000000E+00   0.00000000000000E+00  -1.17193683164230E-05  -1.11266380850003E-25
     -1.17193683164230E-05   3.16988429609310E-15
      8.86980496684340E-02
     -7.78254875828915E-01  -7.78254875828915E-01   0.00000000000000E+00   0.00000000000000E+00   1.57792534490170E-36
     -1.57792534490170E-36   0.00000000000000E+00  -6.51797207701368E-16   0.00000000000000E+00   0.00000000000000E+00
      0.00000000000000E+00   0.00000000000000E+00  -6.72616654723495E-14  -1.05823254767170E-14  -7.78439909490664E-14
     -7.73297520567277E-15   1.00000000000000E+00   1.00000000000000E+00   0.00000000000000E+00   0.00000000000000E+00
      1.40506850616897E-05   8.56802622485880E-21   1.40506850616897E-05   5.22672564190555E-15   0.00000000000000E+00
      0.00000000000000E+00   0.00000000000000E+00   0.00000000000000E+00  -1.40506849838457E-05  -1.15484248057725E-25
     -1.40506849838457E-05   3.15804677146856E-15
      1.00000000000000E-01
     -7.50000000000000E-01  -7.50000000000000E-01   0.00000000000000E+00   0.00000000000000E+00   1.56839579159600E-36
     -1.56839579159600E-36   0.00000000000000E+00  -6.37134777019822E-16   0.00000000000000E+00   0.00000000000000E+00
      0.00000000000000E+00   0.00000000000000E+00  -4.04222346526427E-15  -1.05936436040285E-14  -1.46358670692928E-14
     -7.73363076346725E-15   1.00000000000000E+00   1.00000000000000E+00   0.00000000000000E+00   0.00000000000000E+00
      1.54904812989684E-05   8.56826871965859E-21   1.54904812989684E-05   5.21924292388475E-15   0.00000000000000E+00
      0.00000000000000E+00   0.00000000000000E+00   0.00000000000000E+00  -1.54904812843326E-05  -1.70290432742168E-25
     -1.54904812843326E-05   3.15152261660234E-15
      1.25937597907162E-01
     -6.85156005232096E-01  -6.85156005232096E-01   0.00000000000000E+00   0.00000000000000E+00   1.44658709882266E-36
     -1.44658709882266E-36   0.00000000000000E+00  -6.03478576652632E-16   0.00000000000000E+00   0.00000000000000E+00
      0.00000000000000E+00   0.00000000000000E+00  -2.36720557423472E-13  -1.06222684984273E-14  -2.47342825921900E-13
     -7.73522722691633E-15   1.00000000000000E+00   1.00000000000000E+00   0.00000000000000E+00   0.00000000000000E+00
      1.91867449619621E-05   8.56887835160183E-21   1.91867449619621E-05   5.20193730839615E-15   0.00000000000000E+00
      0.00000000000000E+00   0.00000000000000E+00   0.00000000000000E+00  -1.91867447146194E-05  -1.77938305217390E-25
     -1.91867447146194E-05   3.13676849517281E-15
      1.59137723228328E-01
     -6.02155691929179E-01  -6.02155691929179E-01   0.00000000000000E+00   0.00000000000000E+00   1.58068061889397E-36
     -1.58068061889397E-36   0.00000000000000E+00  -5.60386756097862E-16   0.00000000000000E+00   0.00000000000000E+00
      0.00000000000000E+00   0.00000000000000E+00   1.05356567627123E-18  -1.06639559175516E-14  -1.06629023518753E-14
     -7.73745929924137E-15   1.00000000000000E+00   1.00000000000000E+00   0.00000000000000E+00   0.00000000000000E+00
      2.47353034154642E-05   8.56980980813874E-21   2.47353034154642E-05   5.17950869567776E-15   0.00000000000000E+00
      0.00000000000000E+00   0.00000000000000E+00   0.00000000000000E+00  -2.47353034048014E-05  -1.93100627268752E-25
     -2.47353034048014E-05   3.11833735966146E-15
      2.00000000000000E-01
     -5.00000000000000E-01  -5.00000000000000E-01   0.00000000000000E+00   0.00000000000000E+00   1.57467001977831E-36
     -1.57467001977831E-36   0.00000000000000E+00  -5.07335041165638E-16   0.00000000000000E+00   0.00000000000000E+00
      0.00000000000000E+00   0.00000000000000E+00   9.01146660459727E-18  -1.07219052289304E-14  -1.07128937623258E-14
     -7.74049287809608E-15   1.00000000000000E+00   1.00000000000000E+00   0.00000000000000E+00   0.00000000000000E+00
      3.28311963159584E-05   8.57115806362740E-21   3.28311963159584E-05   5.15147352534455E-15   0.00000000000000E+00
      0.00000000000000E+00   0.00000000000000E+00   0.00000000000000E+00  -3.28311963052456E-05  -3.04109120521120E-25
     -3.28311963052456E-05   3.09635439391715E-15
      2.41832157904670E-01
     -3.95419605238325E-01  -3.95419605238325E-01   0.00000000000000E+00   0.00000000000000E+00   1.57164046175747E-36
     -1.57164046175747E-36   0.00000000000000E+00  -4.53012912483968E-16   0.00000000000000E+00   0.00000000000000E+00
      0.00000000000000E+00   0.00000000000000E+00   1.24168917464493E-17  -1.07868646597575E-14  -1.07744477680111E-14
     -7.74390961343052E-15   1.00000000000000E+00   1.00000000000000E+00   0.00000000000000E+00   0.00000000000000E+00
      4.25218257091797E-05   8.57277133218828E-21   4.25218257091797E-05   5.12229587742154E-15   0.00000000000000E+00
      0.00000000000000E+00   0.00000000000000E+00   0.00000000000000E+00  -4.25218256984054E-05  -3.44791303649173E-25
     -4.25218256984054E-05   3.07462664849294E-15
      2.94540676864554E-01
     -2.63648307838614E-01  -2.63648307838614E-01   0.00000000000000E+00   0.00000000000000E+00   1.54527529029398E-36
     -1.54527529029398E-36   0.00000000000000E+00  -3.84562325817925E-16   0.00000000000000E+00   0.00000000000000E+00
      0.00000000000000E+00   0.00000000000000E+00   8.67308826624296E-17  -1.08732438444203E-14  -1.07865129617579E-14
     -7.74862195020511E-15   1.00000000000000E+00   1.00000000000000E+00   0.00000000000000E+00   0.00000000000000E+00
      5.66003385326563E-05   8.57511478627686E-21   5.66003385326563E-05   5.08489519538934E-15   0.00000000000000E+00
      0.00000000000000E+00   0.00000000000000E+00   0.00000000000000E+00  -5.66003385218699E-05  -5.00483009708306E-25
     -5.66003385218699E-05   3.04828908063367E-15
      3.00000000000000E-01
     -2.50000000000000E-01  -2.50000000000000E-01   0.00000000000000E+00   0.00000000000000E+00   1.58401554396441E-36
     -1.58401554396441E-36   0.00000000000000E+00  -3.77472786809441E-16   0.00000000000000E+00   0.00000000000000E+00
      0.00000000000000E+00   0.00000000000000E+00  -1.04531399865472E-15  -1.08823168708735E-14  -1.19276308695282E-14
     -7.74913379445630E-15   1.00000000000000E+00   1.00000000000000E+00   0.00000000000000E+00   0.00000000000000E+00
      5.81686496251123E-05   8.57537583440736E-21   5.81686496251124E-05   5.08098381099845E-15   0.00000000000000E+00
      0.00000000000000E+00   0.00000000000000E+00   0.00000000000000E+00  -5.81686496131849E-05  -5.37590659822329E-25
     -5.81686496131849E-05   3.04562277026730E-15
      3.66412733889454E-01
     -8.39681652763642E-02  -8.39681652763642E-02   0.00000000000000E+00   0.00000000000000E+00   1.55303072702112E-36
     -1.55303072702112E-36   0.00000000000000E+00  -2.91243845740220E-16   0.00000000000000E+00   0.00000000000000E+00
      0.00000000000000E+00   0.00000000000000E+00   2.53438245947862E-15  -1.09919767679112E-14  -8.45759430843263E-15
     -7.75567522736494E-15   1.00000000000000E+00   1.00000000000000E+00   0.00000000000000E+00   0.00000000000000E+00
      7.87197067432242E-05   8.57879716442280E-21   7.87197067432242E-05   5.03289857000800E-15   0.00000000000000E+00
      0.00000000000000E+00   0.00000000000000E+00   0.00000000000000E+00  -7.87197067347665E-05  -7.03865106574367E-25
     -7.87197067347665E-05   3.01402050309714E-15
      4.00000000000000E-01
      0.00000000000000E+00   0.00000000000000E+00   0.00000000000000E+00   0.00000000000000E+00   1.54426995065086E-36
     -1.54426995065086E-36   0.00000000000000E+00  -2.47652318657445E-16   0.00000000000000E+00   0.00000000000000E+00
      0.00000000000000E+00   0.00000000000000E+00   1.21114931827104E-18  -1.10456891322460E-14  -1.10444779829277E-14
     -7.75918105747999E-15   1.00000000000000E+00   1.00000000000000E+00   0.00000000000000E+00   0.00000000000000E+00
      9.00410971591691E-05   8.58068243626339E-21   9.00410971591691E-05   5.00826313653530E-15   0.00000000000000E+00
      0.00000000000000E+00   0.00000000000000E+00   0.00000000000000E+00  -9.00410971481245E-05  -8.34034392359540E-25
     -9.00410971481245E-05   2.99857023960214E-15
      4.83680044700712E-01
      2.09200111751781E-01   2.09200111751781E-01   0.00000000000000E+00   0.00000000000000E+00   1.59260169654466E-36
     -1.59260169654466E-36   0.00000000000000E+00  -1.39131997031797E-16   0.00000000000000E+00   0.00000000000000E+00
      0.00000000000000E+00   0.00000000000000E+00   2.10944339960499E-16  -1.11699328730883E-14  -1.09589885331278E-14
     -7.76838192458269E-15   1.00000000000000E+00   1.00000000000000E+00   0.00000000000000E+00   0.00000000000000E+00
      1.20448024710158E-04   8.58574819165263E-21   1.20448024710158E-04   4.94613616349461E-15   0.00000000000000E+00
      0.00000000000000E+00   0.00000000000000E+00   0.00000000000000E+00  -1.20448024699199E-04  -1.06875143915694E-24
     -1.20448024699199E-04   2.96137775811987E-15
      5.00000000000000E-01
      2.50000000000000E-01   2.50000000000000E-01   0.00000000000000E+00   0.00000000000000E+00  -3.57574808182896E-35
      3.57574808182896E-35   0.00000000000000E+00  -1.17985425236648E-16   0.00000000000000E+00   0.00000000000000E+00
      0.00000000000000E+00   0.00000000000000E+00  -1.01844787552355E-13  -1.11922435400612E-14  -1.13037031092416E-13
     -7.77024237659686E-15   1.00000000000000E+00   1.00000000000000E+00   0.00000000000000E+00   0.00000000000000E+00
      1.26688819666546E-04   8.58674882758580E-21   1.26688819666546E-04   4.93391447786128E-15   0.00000000000000E+00
      0.00000000000000E+00   0.00000000000000E+00   0.00000000000000E+00  -1.26688819553509E-04  -1.19170672004173E-24
     -1.26688819553509E-04   2.95431332397221E-15
      6.00000000000000E-01
      5.00000000000000E-01   5.00000000000000E-01   0.00000000000000E+00   0.00000000000000E+00   1.58590059385228E-36
     -1.58590059385228E-36   0.00000000000000E+00   1.14221255062692E-17   0.00000000000000E+00   0.00000000000000E+00
      0.00000000000000E+00   0.00000000000000E+00   2.98810067172831E-18  -1.13140111105134E-14  -1.13110230098417E-14
     -7.78200946439013E-15   1.00000000000000E+00   1.00000000000000E+00   0.00000000000000E+00   0.00000000000000E+00
      1.66640969581598E-04   8.59345084841547E-21   1.66640969581598E-04   4.85845656192393E-15   0.00000000000000E+00
      0.00000000000000E+00   0.00000000000000E+00   0.00000000000000E+00  -1.66640969570287E-04  -1.46521553659784E-24
     -1.66640969570287E-04   2.91213077695994E-15
      7.00000000000000E-01
      7.50000000000000E-01   7.50000000000000E-01   0.00000000000000E+00   0.00000000000000E+00   2.46916056109237E-36
     -2.46916056109237E-36   0.00000000000000E+00   1.40474275701842E-16   0.00000000000000E+00   0.00000000000000E+00
      0.00000000000000E+00   0.00000000000000E+00   1.93006272279503E-18  -1.14112116193386E-14  -1.14092815566158E-14
     -7.79425953075780E-15   1.00000000000000E+00   1.00000000000000E+00   0.00000000000000E+00   0.00000000000000E+00
      2.08785608556253E-04   8.60048837510001E-21   2.08785608556253E-04   4.78229605831530E-15   0.00000000000000E+00
      0.00000000000000E+00   0.00000000000000E+00   0.00000000000000E+00  -2.08785608544843E-04  -1.84390486119279E-24
     -2.08785608544843E-04   2.87148919674068E-15
      8.00000000000000E-01
      1.00000000000000E+00   1.00000000000000E+00   0.00000000000000E+00   0.00000000000000E+00   1.51859836291316E-36
     -1.51859836291316E-36   0.00000000000000E+00   2.69086334771163E-16   0.00000000000000E+00   0.00000000000000E+00
      0.00000000000000E+00   0.00000000000000E+00  -4.57247620347955E-19  -1.14873642950640E-14  -1.14878215426844E-14
     -7.80683395371313E-15   1.00000000000000E+00   1.00000000000000E+00   0.00000000000000E+00   0.00000000000000E+00
      2.52285819891844E-04   8.60776057847801E-21   2.52285819891844E-04   4.70574981699498E-15   0.00000000000000E+00
      0.00000000000000E+00   0.00000000000000E+00   0.00000000000000E+00  -2.52285819880356E-04  -2.18998106221242E-24
     -2.52285819880356E-04   2.83199780194699E-15
      9.00000000000000E-01
      1.25000000000000E+00   1.25000000000000E+00   0.00000000000000E+00   0.00000000000000E+00   1.57561025831841E-36
     -1.57561025831841E-36   0.00000000000000E+00   3.97184696187944E-16   0.00000000000000E+00   0.00000000000000E+00
      0.00000000000000E+00   0.00000000000000E+00  -1.36136080456980E-18  -1.15468123429921E-14  -1.15481737037967E-14
     -7.81961837626063E-15   1.00000000000000E+00   1.00000000000000E+00   0.00000000000000E+00   0.00000000000000E+00
      2.96496349122232E-04   8.61515910222079E-21   2.96496349122232E-04   4.62906971421348E-15   0.00000000000000E+00
      0.00000000000000E+00   0.00000000000000E+00   0.00000000000000E+00  -2.96496349110684E-04  -2.62830612615526E-24
     -2.96496349110684E-04   2.79336396585920E-15
      1.00000000000000E+00
      1.50000000000000E+00   1.50000000000000E+00   0.00000000000000E+00   0.00000000000000E+00   1.52871640100321E-36
     -1.52871640100321E-36   0.00000000000000E+00   5.24706090056291E-16   0.00000000000000E+00   0.00000000000000E+00
      0.00000000000000E+00   0.00000000000000E+00   8.55037413108139E-16  -1.15936137319368E-14  -1.07385763188287E-14
     -7.83252792696425E-15   1.00000000000000E+00   1.00000000000000E+00   0.00000000000000E+00   0.00000000000000E+00
      3.40906971836962E-04   8.62260117021429E-21   3.40906971836962E-04   4.55246054527161E-15   0.00000000000000E+00
      0.00000000000000E+00   0.00000000000000E+00   0.00000000000000E+00  -3.40906971826224E-04  -3.00329671341638E-24
     -3.40906971826224E-04   2.75536129163636E-15
}
