DF-ISE text

Info {
  version   = 1.0
  type      = xyplot
  datasets  = [
    "time"
    "gate OuterVoltage" "gate InnerVoltage" "gate QuasiFermiPotential" "gate DisplacementCurrent" "gate eCurrent"
    "gate hCurrent" "gate TotalCurrent" "gate Charge" "substrate OuterVoltage" "substrate InnerVoltage"
    "substrate QuasiFermiPotential" "substrate DisplacementCurrent" "substrate eCurrent" "substrate hCurrent" "substrate TotalCurrent"
    "substrate Charge" "drain OuterVoltage" "drain InnerVoltage" "drain QuasiFermiPotential" "drain DisplacementCurrent"
    "drain eCurrent" "drain hCurrent" "drain TotalCurrent" "drain Charge" "source OuterVoltage"
    "source InnerVoltage" "source QuasiFermiPotential" "source DisplacementCurrent" "source eCurrent" "source hCurrent"
    "source TotalCurrent" "source Charge" ]
  functions = [
    Time
    OuterVoltage InnerVoltage QuasiFermiPotential DisplacementCurrent eCurrent
    hCurrent TotalCurrent Charge OuterVoltage InnerVoltage
    QuasiFermiPotential DisplacementCurrent eCurrent hCurrent TotalCurrent
    Charge OuterVoltage InnerVoltage QuasiFermiPotential DisplacementCurrent
    eCurrent hCurrent TotalCurrent Charge OuterVoltage
    InnerVoltage QuasiFermiPotential DisplacementCurrent eCurrent hCurrent
    TotalCurrent Charge ]
}

Data {
      0.00000000000000E+00
     -1.00000000000000E+00  -1.00000000000000E+00   0.00000000000000E+00   0.00000000000000E+00   8.10825237162073E-36
     -8.10825237162073E-36   0.00000000000000E+00  -6.67283303790039E-16   0.00000000000000E+00   0.00000000000000E+00
      0.00000000000000E+00   0.00000000000000E+00  -2.07286606476468E-22  -6.85369747805399E-15  -6.85369768534060E-15
     -4.92615118354900E-15   1.00000000000000E+00   1.00000000000000E+00   0.00000000000000E+00   0.00000000000000E+00
      6.85371924046810E-15   8.45622032854544E-21   6.85372769668843E-15   3.46065686801577E-15   0.00000000000000E+00
      0.00000000000000E+00   0.00000000000000E+00   0.00000000000000E+00  -3.00113955142620E-20   4.76995283721236E-26
     -3.00113478147336E-20   2.13277761932324E-15
      1.00000000000000E-03
     -9.97500000000000E-01  -9.97500000000000E-01   0.00000000000000E+00   0.00000000000000E+00   8.19223257576084E-36
     -8.19223257576084E-36   0.00000000000000E+00  -6.65200668917660E-16   0.00000000000000E+00   0.00000000000000E+00
      0.00000000000000E+00   0.00000000000000E+00   6.63901158120238E-22  -6.85374504955967E-15  -6.85374438565851E-15
     -4.92706953969824E-15   1.00000000000000E+00   1.00000000000000E+00   0.00000000000000E+00   0.00000000000000E+00
      6.85376668426714E-15   8.45622157998891E-21   6.85377514048872E-15   3.46007264793895E-15   0.00000000000000E+00
      0.00000000000000E+00   0.00000000000000E+00   0.00000000000000E+00  -3.07548360785179E-20   5.86935610329452E-27
     -3.07548302091618E-20   2.13219756067694E-15
      2.28000000000000E-03
     -9.94300000000000E-01  -9.94300000000000E-01   0.00000000000000E+00   0.00000000000000E+00   1.13024636805979E-35
     -1.13024636805979E-35   0.00000000000000E+00  -6.62535507587233E-16   0.00000000000000E+00   0.00000000000000E+00
      0.00000000000000E+00   0.00000000000000E+00  -1.75348315780497E-17  -6.85380631622857E-15  -6.87134114780662E-15
     -4.92824419016706E-15   1.00000000000000E+00   1.00000000000000E+00   0.00000000000000E+00   0.00000000000000E+00
      6.85382699252966E-15   8.45622307706918E-21   6.85383544875274E-15   3.45932473942132E-15   0.00000000000000E+00
      0.00000000000000E+00   0.00000000000000E+00   0.00000000000000E+00   1.75056955917683E-17   3.46210733216336E-24
      1.75056990538757E-17   2.13145495833299E-15
      3.94400000000000E-03
     -9.90140000000000E-01  -9.90140000000000E-01   0.00000000000000E+00   0.00000000000000E+00   8.09096400843106E-36
     -8.09096400843106E-36   0.00000000000000E+00  -6.59071825672225E-16   0.00000000000000E+00   0.00000000000000E+00
      0.00000000000000E+00   0.00000000000000E+00  -3.75756423023343E-21  -6.85388658143594E-15  -6.85389033900017E-15
     -4.92976981496100E-15   1.00000000000000E+00   1.00000000000000E+00   0.00000000000000E+00   0.00000000000000E+00
      6.85390833578106E-15   8.45622526453591E-21   6.85391679200633E-15   3.45835227907000E-15   0.00000000000000E+00
      0.00000000000000E+00   0.00000000000000E+00   0.00000000000000E+00  -2.64529218247906E-20  -8.43306339556040E-26
     -2.64530061554246E-20   2.13048936156322E-15
      6.07392000000000E-03
     -9.84815200000000E-01  -9.84815200000000E-01   0.00000000000000E+00   0.00000000000000E+00   8.11837401757188E-36
     -8.11837401757188E-36   0.00000000000000E+00  -6.54640011670627E-16   0.00000000000000E+00   0.00000000000000E+00
      0.00000000000000E+00   0.00000000000000E+00   1.11035474871099E-21  -6.85399036521898E-15  -6.85398925486423E-15
     -4.93172026750922E-15   1.00000000000000E+00   1.00000000000000E+00   0.00000000000000E+00   0.00000000000000E+00
      6.85401205213456E-15   8.45622793158953E-21   6.85402050836249E-15   3.45710723416831E-15   0.00000000000000E+00
      0.00000000000000E+00   0.00000000000000E+00   0.00000000000000E+00  -3.12534913946093E-20  -6.85885620343337E-27
     -3.12534982534655E-20   2.12925304501154E-15
      8.80021760000000E-03
     -9.77999456000000E-01  -9.77999456000000E-01   0.00000000000000E+00   0.00000000000000E+00   8.02962827472813E-36
     -8.02962827472813E-36   0.00000000000000E+00  -6.48970080362164E-16   0.00000000000000E+00   0.00000000000000E+00
      0.00000000000000E+00   0.00000000000000E+00  -1.50599509335442E-22  -6.85412492412257E-15  -6.85412507472208E-15
     -4.93421299376832E-15   1.00000000000000E+00   1.00000000000000E+00   0.00000000000000E+00   0.00000000000000E+00
      6.85414650195183E-15   8.45623134727400E-21   6.85415495818317E-15   3.45551309244927E-15   0.00000000000000E+00
      0.00000000000000E+00   0.00000000000000E+00   0.00000000000000E+00  -2.98834894022603E-20   2.83070954693691E-26
     -2.98834610951648E-20   2.12766998168124E-15
      1.22898785280000E-02
     -9.69275303680000E-01  -9.69275303680000E-01   0.00000000000000E+00   0.00000000000000E+00   8.03518486298835E-36
     -8.03518486298835E-36   0.00000000000000E+00  -6.41717155257598E-16   0.00000000000000E+00   0.00000000000000E+00
      0.00000000000000E+00   0.00000000000000E+00  -1.06571629974827E-21  -6.85429998932639E-15  -6.85430105504269E-15
     -4.93739735553913E-15   1.00000000000000E+00   1.00000000000000E+00   0.00000000000000E+00   0.00000000000000E+00
      6.85432193001424E-15   8.45623572139953E-21   6.85433038624996E-15   3.45347179800360E-15   0.00000000000000E+00
      0.00000000000000E+00   0.00000000000000E+00   0.00000000000000E+00  -2.93312886134809E-20   8.13469165151065E-26
     -2.93312072665644E-20   2.12564271279310E-15
      1.67566445158400E-02
     -9.58108388710400E-01  -9.58108388710400E-01   0.00000000000000E+00   0.00000000000000E+00   8.10835065923983E-36
     -8.10835065923983E-36   0.00000000000000E+00  -6.32440956735605E-16   0.00000000000000E+00   0.00000000000000E+00
      0.00000000000000E+00   0.00000000000000E+00   1.67736577063478E-21  -6.85452877681017E-15  -6.85452709944440E-15
     -4.94146294037892E-15   1.00000000000000E+00   1.00000000000000E+00   0.00000000000000E+00   0.00000000000000E+00
      6.85455073155215E-15   8.45624132424896E-21   6.85455918779347E-15   3.45085764256029E-15   0.00000000000000E+00
      0.00000000000000E+00   0.00000000000000E+00   0.00000000000000E+00  -3.20883174550445E-20  -3.16258060638094E-26
     -3.20883490808506E-20   2.12304625455424E-15
      2.24741049802752E-02
     -9.43814737549312E-01  -9.43814737549312E-01   0.00000000000000E+00   0.00000000000000E+00   8.10511250574016E-36
     -8.10511250574016E-36   0.00000000000000E+00  -6.20579846768961E-16   0.00000000000000E+00   0.00000000000000E+00
      0.00000000000000E+00   0.00000000000000E+00   1.34503022817944E-21  -6.85482941925897E-15  -6.85482807422874E-15
     -4.94664979075709E-15   1.00000000000000E+00   1.00000000000000E+00   0.00000000000000E+00   0.00000000000000E+00
      6.85485136558301E-15   8.45624850347642E-21   6.85485982183151E-15   3.44750939781719E-15   0.00000000000000E+00
      0.00000000000000E+00   0.00000000000000E+00   0.00000000000000E+00  -3.17475462415913E-20  -5.65398867108652E-26
     -3.17476027814780E-20   2.11972023970886E-15
      2.97924543747523E-02
     -9.25518864063119E-01  -9.25518864063119E-01   0.00000000000000E+00   0.00000000000000E+00   8.11962778895333E-36
     -8.11962778895333E-36   0.00000000000000E+00  -6.05418104393486E-16   0.00000000000000E+00   0.00000000000000E+00
      0.00000000000000E+00   0.00000000000000E+00   1.31951635525667E-21  -6.85522708413799E-15  -6.85522576462163E-15
     -4.95326082330692E-15   1.00000000000000E+00   1.00000000000000E+00   0.00000000000000E+00   0.00000000000000E+00
      6.85524977001848E-15   8.45625770380141E-21   6.85525822627618E-15   3.44322016581670E-15   0.00000000000000E+00
      0.00000000000000E+00   0.00000000000000E+00   0.00000000000000E+00  -3.24616376033059E-20  -1.69493364194839E-26
     -3.24616545526423E-20   2.11545876188370E-15
      3.91599415996829E-02
     -9.02100146000793E-01  -9.02100146000793E-01   0.00000000000000E+00   0.00000000000000E+00   8.12753360052560E-36
     -8.12753360052560E-36   0.00000000000000E+00  -5.86044865803528E-16   0.00000000000000E+00   0.00000000000000E+00
      0.00000000000000E+00   0.00000000000000E+00   2.14018559359171E-20  -6.85575694200812E-15  -6.85573554015218E-15
     -4.96167661143443E-15   1.00000000000000E+00   1.00000000000000E+00   0.00000000000000E+00   0.00000000000000E+00
      6.85578021718906E-15   8.45626950104773E-21   6.85578867345856E-15   3.43772425915737E-15   0.00000000000000E+00
      0.00000000000000E+00   0.00000000000000E+00   0.00000000000000E+00  -5.31332631784191E-20  -4.32050578844127E-26
     -5.31333063834770E-20   2.10999721808060E-15
      5.11503252475941E-02
     -8.72124186881015E-01  -8.72124186881015E-01   0.00000000000000E+00   0.00000000000000E+00   8.16305867747032E-36
     -8.16305867747032E-36   0.00000000000000E+00  -5.61302937858143E-16   0.00000000000000E+00   0.00000000000000E+00
      0.00000000000000E+00   0.00000000000000E+00   1.60434085875666E-19  -6.85646766249540E-15  -6.85630722840952E-15
     -4.97237247229275E-15   1.00000000000000E+00   1.00000000000000E+00   0.00000000000000E+00   0.00000000000000E+00
      6.85649093333117E-15   8.45628456811386E-21   6.85649938961574E-15   3.43068020052901E-15   0.00000000000000E+00
      0.00000000000000E+00   0.00000000000000E+00   0.00000000000000E+00  -1.92161208658383E-19   2.45105831538521E-27
     -1.92161206207325E-19   2.10299520962188E-15
      6.64980163169205E-02
     -8.33754959207699E-01  -8.33754959207699E-01   0.00000000000000E+00   0.00000000000000E+00   8.14917449564500E-36
     -8.14917449564500E-36   0.00000000000000E+00  -5.29725527880304E-16   0.00000000000000E+00   0.00000000000000E+00
      0.00000000000000E+00   0.00000000000000E+00   1.23556749082647E-18  -6.85742320355851E-15  -6.85618763606768E-15
     -4.98593734316322E-15   1.00000000000000E+00   1.00000000000000E+00   0.00000000000000E+00   0.00000000000000E+00
      6.85744661347850E-15   8.45630312083659E-21   6.85745506978162E-15   3.42164863061110E-15   0.00000000000000E+00
      0.00000000000000E+00   0.00000000000000E+00   0.00000000000000E+00  -1.26743376086067E-18   4.69339703242108E-26
     -1.26743371392670E-18   2.09401424043242E-15
      8.61430608856582E-02
     -7.84642347785855E-01  -7.84642347785855E-01   0.00000000000000E+00   0.00000000000000E+00   8.48578143092894E-36
     -8.48578143092894E-36   0.00000000000000E+00  -4.89458872354839E-16   0.00000000000000E+00   0.00000000000000E+00
      0.00000000000000E+00   0.00000000000000E+00   9.85516753861724E-18  -6.85869632743519E-15  -6.84884115989657E-15
     -5.00309314926351E-15   1.00000000000000E+00   1.00000000000000E+00   0.00000000000000E+00   0.00000000000000E+00
      6.85872033671610E-15   8.45632695077089E-21   6.85872879304305E-15   3.41006350777985E-15   0.00000000000000E+00
      0.00000000000000E+00   0.00000000000000E+00   0.00000000000000E+00  -9.88763366400276E-18   5.17527099364813E-25
     -9.88763314647566E-18   2.08248851383852E-15
      1.00000000000000E-01
     -7.50000000000000E-01  -7.50000000000000E-01   0.00000000000000E+00   0.00000000000000E+00   8.15260838228560E-36
     -8.15260838228560E-36   0.00000000000000E+00  -4.61159653384186E-16   0.00000000000000E+00   0.00000000000000E+00
      0.00000000000000E+00   0.00000000000000E+00   2.28260931485992E-18  -6.85960669935391E-15  -6.85732409003905E-15
     -5.01505396552675E-15   1.00000000000000E+00   1.00000000000000E+00   0.00000000000000E+00   0.00000000000000E+00
      6.85963297140743E-15   8.45634383458768E-21   6.85964142775127E-15   3.40187519542347E-15   0.00000000000000E+00
      0.00000000000000E+00   0.00000000000000E+00   0.00000000000000E+00  -2.31733781929431E-18   1.07082143481187E-25
     -2.31733771221216E-18   2.07433842348746E-15
      1.25145657047984E-01
     -6.87135857380039E-01  -6.87135857380039E-01   0.00000000000000E+00   0.00000000000000E+00   7.99408414626689E-36
     -7.99408414626689E-36   0.00000000000000E+00  -4.10025117235896E-16   0.00000000000000E+00   0.00000000000000E+00
      0.00000000000000E+00   0.00000000000000E+00   1.61045947968732E-21  -6.86123612007963E-15  -6.86123450962015E-15
     -5.03646277186914E-15   1.00000000000000E+00   1.00000000000000E+00   0.00000000000000E+00   0.00000000000000E+00
      6.86126345540827E-15   8.45637456164829E-21   6.86127191178284E-15   3.38698155956521E-15   0.00000000000000E+00
      0.00000000000000E+00   0.00000000000000E+00   0.00000000000000E+00  -3.74021116566912E-20  -5.10228818864287E-26
     -3.74021626795731E-20   2.05950632953983E-15
      1.56829184928444E-01
     -6.07927037678889E-01  -6.07927037678889E-01   0.00000000000000E+00   0.00000000000000E+00   8.06877502003556E-36
     -8.06877502003556E-36   0.00000000000000E+00  -3.45995390061705E-16   0.00000000000000E+00   0.00000000000000E+00
      0.00000000000000E+00   0.00000000000000E+00   3.11179363183631E-21  -6.86319365829558E-15  -6.86319054650195E-15
     -5.06289864188737E-15   1.00000000000000E+00   1.00000000000000E+00   0.00000000000000E+00   0.00000000000000E+00
      6.86322332526189E-15   8.45641346814373E-21   6.86323178167536E-15   3.36815301423290E-15   0.00000000000000E+00
      0.00000000000000E+00   0.00000000000000E+00   0.00000000000000E+00  -4.12351155946898E-20  -5.78072083718322E-26
     -4.12351734018981E-20   2.04074101771618E-15
      1.96750430057824E-01
     -5.08123924855439E-01  -5.08123924855439E-01   0.00000000000000E+00   0.00000000000000E+00   8.09791167379108E-36
     -8.09791167379108E-36   0.00000000000000E+00  -2.65940535711721E-16   0.00000000000000E+00   0.00000000000000E+00
      0.00000000000000E+00   0.00000000000000E+00   7.05346003757586E-21  -6.86548171907142E-15  -6.86547466561138E-15
     -5.09536947949449E-15   1.00000000000000E+00   1.00000000000000E+00   0.00000000000000E+00   0.00000000000000E+00
      6.86551727306622E-15   8.45646261719054E-21   6.86552572952884E-15   3.34433225906896E-15   0.00000000000000E+00
      0.00000000000000E+00   0.00000000000000E+00   0.00000000000000E+00  -5.10639585276916E-20   4.10640099891476E-26
     -5.10639174636817E-20   2.01697775613723E-15
      2.00000000000000E-01
     -5.00000000000000E-01  -5.00000000000000E-01   0.00000000000000E+00   0.00000000000000E+00   8.12616631785018E-36
     -8.12616631785018E-36   0.00000000000000E+00  -2.59453988502741E-16   0.00000000000000E+00   0.00000000000000E+00
      0.00000000000000E+00   0.00000000000000E+00   3.02363470690961E-20  -6.86565718280763E-15  -6.86562694646056E-15
     -5.09797237211973E-15   1.00000000000000E+00   1.00000000000000E+00   0.00000000000000E+00   0.00000000000000E+00
      6.86569511748293E-15   8.45646661652966E-21   6.86570357394954E-15   3.34238861876472E-15   0.00000000000000E+00
      0.00000000000000E+00   0.00000000000000E+00   0.00000000000000E+00  -7.66274910564239E-20   2.06441925247650E-27
     -7.66274889920047E-20   2.01503774185777E-15
      2.50300768863019E-01
     -3.74248077842453E-01  -3.74248077842453E-01   0.00000000000000E+00   0.00000000000000E+00   8.06495229828992E-36
     -8.06495229828992E-36   0.00000000000000E+00  -1.59600223241672E-16   0.00000000000000E+00   0.00000000000000E+00
      0.00000000000000E+00   0.00000000000000E+00   5.37419614470437E-21  -6.86807429018070E-15  -6.86806891598455E-15
     -5.13751854742678E-15   1.00000000000000E+00   1.00000000000000E+00   0.00000000000000E+00   0.00000000000000E+00
      6.86812660097212E-15   8.45652857385097E-21   6.86813505750070E-15   3.31221627884723E-15   0.00000000000000E+00
      0.00000000000000E+00   0.00000000000000E+00   0.00000000000000E+00  -6.61414509418776E-20  -6.51998990011058E-26
     -6.61415161417765E-20   1.98490249182125E-15
      3.00000000000000E-01
     -2.50000000000000E-01  -2.50000000000000E-01   0.00000000000000E+00   0.00000000000000E+00   8.06927110160836E-36
     -8.06927110160836E-36   0.00000000000000E+00  -6.19126796259690E-17   0.00000000000000E+00   0.00000000000000E+00
      0.00000000000000E+00   0.00000000000000E+00   1.41782799075533E-20  -6.87000057364513E-15  -6.86998639536523E-15
     -5.17528108522649E-15   1.00000000000000E+00   1.00000000000000E+00   0.00000000000000E+00   0.00000000000000E+00
      6.87008991416346E-15   8.45658889686895E-21   6.87009837075235E-15   3.28225145908035E-15   0.00000000000000E+00
      0.00000000000000E+00   0.00000000000000E+00   0.00000000000000E+00  -1.11975309627939E-19  -7.75049959083976E-26
     -1.11975387132935E-19   1.95494230577212E-15
      3.63378968767403E-01
     -9.15525780814912E-02  -9.15525780814912E-02   0.00000000000000E+00   0.00000000000000E+00   8.04245595733728E-36
     -8.04245595733728E-36   0.00000000000000E+00   6.13734313704973E-17   0.00000000000000E+00   0.00000000000000E+00
      0.00000000000000E+00   0.00000000000000E+00  -3.22775743633083E-21  -6.87302129861767E-15  -6.87302452637510E-15
     -5.22169517105827E-15   1.00000000000000E+00   1.00000000000000E+00   0.00000000000000E+00   0.00000000000000E+00
      6.87325598108176E-15   8.45666641768466E-21   6.87326443774818E-15   3.24383133165715E-15   0.00000000000000E+00
      0.00000000000000E+00   0.00000000000000E+00   0.00000000000000E+00  -2.39911366386749E-19  -6.69704002255037E-27
     -2.39911373083789E-19   1.91649040803060E-15
      4.00000000000000E-01
      0.00000000000000E+00   0.00000000000000E+00   0.00000000000000E+00   0.00000000000000E+00   8.11631373255740E-36
     -8.11631373255740E-36   0.00000000000000E+00   1.32001812857900E-16   0.00000000000000E+00   0.00000000000000E+00
      0.00000000000000E+00   0.00000000000000E+00   3.17649411841174E-21  -6.87608368349133E-15  -6.87608050699721E-15
     -5.24769187969029E-15   1.00000000000000E+00   1.00000000000000E+00   0.00000000000000E+00   0.00000000000000E+00
      6.87655670268578E-15   8.45671148797871E-21   6.87656515939726E-15   3.22153193382266E-15   0.00000000000000E+00
      0.00000000000000E+00   0.00000000000000E+00   0.00000000000000E+00  -4.84652470129749E-19   7.00761899946150E-26
     -4.84652400053559E-19   1.89415813300970E-15
      4.78589921271580E-01
      1.96474803178951E-01   1.96474803178951E-01   0.00000000000000E+00   0.00000000000000E+00   7.99706313311311E-36
     -7.99706313311311E-36   0.00000000000000E+00   2.82223323529813E-16   0.00000000000000E+00   0.00000000000000E+00
      0.00000000000000E+00   0.00000000000000E+00  -2.76993009275462E-21  -6.88843025794605E-15  -6.88843302787614E-15
     -5.30165457372550E-15   1.00000000000000E+00   1.00000000000000E+00   0.00000000000000E+00   0.00000000000000E+00
      6.89119868401939E-15   8.45680881840102E-21   6.89120714082821E-15   3.17344710698719E-15   0.00000000000000E+00
      0.00000000000000E+00   0.00000000000000E+00   0.00000000000000E+00  -2.77411292517312E-18  -2.69078731029087E-26
     -2.77411295208099E-18   1.84598414320850E-15
      5.00000000000000E-01
      2.50000000000000E-01   2.50000000000000E-01   0.00000000000000E+00   0.00000000000000E+00   8.17242754154490E-36
     -8.17242754154490E-36   0.00000000000000E+00   3.22856235763276E-16   0.00000000000000E+00   0.00000000000000E+00
      0.00000000000000E+00   0.00000000000000E+00  -1.74644737888324E-21  -6.89350461314494E-15  -6.89350635959232E-15
     -5.31596039548450E-15   1.00000000000000E+00   1.00000000000000E+00   0.00000000000000E+00   0.00000000000000E+00
      6.89820942997265E-15   8.45683546730759E-21   6.89821788680812E-15   3.16029603658651E-15   0.00000000000000E+00
      0.00000000000000E+00   0.00000000000000E+00   0.00000000000000E+00  -4.71152720791440E-18  -7.87809287245299E-27
     -4.71152721579250E-18   1.83280812313471E-15
      5.23969925987832E-01
      3.09924814969580E-01   3.09924814969580E-01   0.00000000000000E+00   0.00000000000000E+00   8.20952244858559E-36
     -8.20952244858559E-36   0.00000000000000E+00   3.68210905810615E-16   0.00000000000000E+00   0.00000000000000E+00
      0.00000000000000E+00   0.00000000000000E+00   4.61410004771330E-20  -6.90022345094290E-15  -6.90017730994243E-15
     -5.33179189287541E-15   1.00000000000000E+00   1.00000000000000E+00   0.00000000000000E+00   0.00000000000000E+00
      6.90891280692850E-15   8.45686536783700E-21   6.90892126379387E-15   3.14554760988899E-15   0.00000000000000E+00
      0.00000000000000E+00   0.00000000000000E+00   0.00000000000000E+00  -8.74395374808636E-18  -1.03360810160227E-25
     -8.74395385144717E-18   1.81803337717581E-15
      5.53213235692987E-01
      3.83033089232467E-01   3.83033089232467E-01   0.00000000000000E+00   0.00000000000000E+00   8.04808175695847E-36
     -8.04808175695847E-36   0.00000000000000E+00   4.23357152955011E-16   0.00000000000000E+00   0.00000000000000E+00
      0.00000000000000E+00   0.00000000000000E+00   2.92233318970627E-21  -6.91013866648014E-15  -6.91013574414695E-15
     -5.35085418297398E-15   1.00000000000000E+00   1.00000000000000E+00   0.00000000000000E+00   0.00000000000000E+00
      6.92898703521205E-15   8.45690193817844E-21   6.92899549211399E-15   3.12751959891765E-15   0.00000000000000E+00
      0.00000000000000E+00   0.00000000000000E+00   0.00000000000000E+00  -1.88597479322109E-17  -3.48509768047866E-26
     -1.88597479670619E-17   1.79997743110132E-15
      5.90059805921482E-01
      4.75149514803706E-01   4.75149514803706E-01   0.00000000000000E+00   0.00000000000000E+00   3.37542919690313E-36
     -3.37542919690313E-36   0.00000000000000E+00   4.92564010890371E-16   0.00000000000000E+00   0.00000000000000E+00
      0.00000000000000E+00   0.00000000000000E+00   5.54123297415382E-21  -6.92596043897086E-15  -6.92595489773788E-15
     -5.37449879399149E-15   1.00000000000000E+00   1.00000000000000E+00   0.00000000000000E+00   0.00000000000000E+00
      6.97780036232788E-15   8.45694815597856E-21   6.97780881927604E-15   3.10475088755301E-15   0.00000000000000E+00
      0.00000000000000E+00   0.00000000000000E+00   0.00000000000000E+00  -5.18539215082839E-17  -2.98715021027268E-26
     -5.18539215381554E-17   1.77718389554811E-15
      6.00000000000000E-01
      5.00000000000000E-01   5.00000000000000E-01   0.00000000000000E+00   0.00000000000000E+00   8.27239572108228E-36
     -8.27239572108228E-36   0.00000000000000E+00   5.11183197125767E-16   0.00000000000000E+00   0.00000000000000E+00
      0.00000000000000E+00   0.00000000000000E+00   1.29666392004593E-17  -6.93099439758240E-15  -6.91802775838195E-15
     -5.38080911708635E-15   1.00000000000000E+00   1.00000000000000E+00   0.00000000000000E+00   0.00000000000000E+00
      6.99953902154095E-15   8.45696065027090E-21   6.99954747850160E-15   3.09859847585891E-15   0.00000000000000E+00
      0.00000000000000E+00   0.00000000000000E+00   0.00000000000000E+00  -8.15197201384883E-17   1.88166347470066E-26
     -8.15197201196717E-17   1.77102744410167E-15
      6.46426678487904E-01
      6.16066696219760E-01   6.16066696219760E-01   0.00000000000000E+00   0.00000000000000E+00   3.43313911953285E-36
     -3.43313911953285E-36   0.00000000000000E+00   5.97872055375271E-16   0.00000000000000E+00   0.00000000000000E+00
      0.00000000000000E+00   0.00000000000000E+00   7.25469103065130E-21  -6.95983758519195E-15  -6.95983033050092E-15
     -5.40991716717879E-15   1.00000000000000E+00   1.00000000000000E+00   0.00000000000000E+00   0.00000000000000E+00
      7.22123420255482E-15   8.45701915115980E-21   7.22124265957397E-15   3.06980739387691E-15   0.00000000000000E+00
      0.00000000000000E+00   0.00000000000000E+00   0.00000000000000E+00  -2.61412329057040E-16  -1.60011470262515E-26
     -2.61412329073041E-16   1.74223771792661E-15
      7.00000000000000E-01
      7.50000000000000E-01   7.50000000000000E-01   0.00000000000000E+00   0.00000000000000E+00   1.26557261757742E-35
     -1.26557261757742E-35   0.00000000000000E+00   6.97372526702447E-16   0.00000000000000E+00   0.00000000000000E+00
      0.00000000000000E+00   0.00000000000000E+00   7.00861909185318E-20  -7.00401669599104E-15  -7.00394660980012E-15
     -5.44280468162677E-15   1.00000000000000E+00   1.00000000000000E+00   0.00000000000000E+00   0.00000000000000E+00
      8.31003229956737E-15   8.45708694232365E-21   8.31004075665431E-15   3.03647195244087E-15   0.00000000000000E+00
      0.00000000000000E+00   0.00000000000000E+00   0.00000000000000E+00  -1.30609414679663E-15  -5.75675908555575E-26
     -1.30609414685420E-15   1.70896020248347E-15
      7.57569081325001E-01
      8.93922703312503E-01   8.93922703312503E-01   0.00000000000000E+00   0.00000000000000E+00   8.08171392440027E-36
     -8.08171392440027E-36   0.00000000000000E+00   8.03703260903832E-16   0.00000000000000E+00   0.00000000000000E+00
      0.00000000000000E+00   0.00000000000000E+00  -1.27901143957308E-20  -7.04923505616193E-15  -7.04924784627633E-15
     -5.47738671340689E-15   1.00000000000000E+00   1.00000000000000E+00   0.00000000000000E+00   0.00000000000000E+00
      1.49115155012923E-14   8.45716011787873E-21   1.49115239584524E-14   3.00051739921044E-15   0.00000000000000E+00
      0.00000000000000E+00   0.00000000000000E+00   0.00000000000000E+00  -7.86227611218770E-15   1.16033079707394E-26
     -7.86227611217610E-15   1.67316605329260E-15
      8.00000000000000E-01
      1.00000000000000E+00   1.00000000000000E+00   0.00000000000000E+00   0.00000000000000E+00   8.08122516046141E-36
     -8.08122516046141E-36   0.00000000000000E+00   8.81709308313158E-16   0.00000000000000E+00   0.00000000000000E+00
      0.00000000000000E+00   0.00000000000000E+00   1.62300285866247E-19  -7.06817953384582E-15  -7.06801723355996E-15
     -5.50242526452152E-15   1.00000000000000E+00   1.00000000000000E+00   0.00000000000000E+00   0.00000000000000E+00
      3.77313323646268E-14   8.45721425744979E-21   3.77313408218410E-14   2.97392974906169E-15   0.00000000000000E+00
      0.00000000000000E+00   0.00000000000000E+00   0.00000000000000E+00  -3.06633235882078E-14  -7.33936175468954E-26
     -3.06633235882811E-14   1.64678620714666E-15
      8.71385660843001E-01
      1.17846415210750E+00   1.17846415210750E+00   0.00000000000000E+00   0.00000000000000E+00   8.10390504965359E-36
     -8.10390504965359E-36   0.00000000000000E+00   1.01230464497547E-15   0.00000000000000E+00   0.00000000000000E+00
      0.00000000000000E+00   0.00000000000000E+00   6.37189790655929E-20  -7.07666008898616E-15  -7.07659637000710E-15
     -5.54381064607110E-15   1.00000000000000E+00   1.00000000000000E+00   0.00000000000000E+00   0.00000000000000E+00
      3.30235595522209E-13   8.45730572831036E-21   3.30235603979514E-13   2.92903214012528E-15   0.00000000000000E+00
      0.00000000000000E+00   0.00000000000000E+00   0.00000000000000E+00  -3.23159007609477E-13  -2.98943088577391E-26
     -3.23159007609507E-13   1.60247386097032E-15
      9.00000000000000E-01
      1.25000000000000E+00   1.25000000000000E+00   0.00000000000000E+00   0.00000000000000E+00   8.27138993835767E-36
     -8.27138993835767E-36   0.00000000000000E+00   1.06444261402972E-15   0.00000000000000E+00   0.00000000000000E+00
      0.00000000000000E+00   0.00000000000000E+00  -1.90912644579058E-19  -7.07735455989020E-15  -7.07754547253478E-15
     -5.56017832543639E-15   1.00000000000000E+00   1.00000000000000E+00   0.00000000000000E+00   0.00000000000000E+00
      8.55281477367334E-13   8.45734252904780E-21   8.55281485824676E-13   2.91097730669542E-15   0.00000000000000E+00
      0.00000000000000E+00   0.00000000000000E+00   0.00000000000000E+00  -8.48203940352105E-13  -3.70812049030826E-26
     -8.48203940352142E-13   1.58475840471126E-15
      9.88518219445322E-01
      1.47129554861330E+00   1.47129554861330E+00   0.00000000000000E+00   0.00000000000000E+00   8.05762799471712E-36
     -8.05762799471712E-36   0.00000000000000E+00   1.22504540813616E-15   0.00000000000000E+00   0.00000000000000E+00
      0.00000000000000E+00   0.00000000000000E+00   3.24302486446106E-20  -7.07073474477863E-15  -7.07070231452998E-15
     -5.61021772967002E-15   1.00000000000000E+00   1.00000000000000E+00   0.00000000000000E+00   0.00000000000000E+00
      1.79126551069150E-11   8.45745684506279E-21   1.79126551153724E-11   2.85492164116316E-15   0.00000000000000E+00
      0.00000000000000E+00   0.00000000000000E+00   0.00000000000000E+00  -1.79055844130580E-11   3.13866896392988E-26
     -1.79055844130580E-11   1.53025068037070E-15
      1.00000000000000E+00
      1.50000000000000E+00   1.50000000000000E+00   0.00000000000000E+00   0.00000000000000E+00   7.92896675175161E-36