DF-ISE text

Info {
  version   = 1.0
  type      = xyplot
  datasets  = [
    "time"
    "gate OuterVoltage" "gate InnerVoltage" "gate QuasiFermiPotential" "gate DisplacementCurrent" "gate eCurrent"
    "gate hCurrent" "gate TotalCurrent" "gate Charge" "substrate OuterVoltage" "substrate InnerVoltage"
    "substrate QuasiFermiPotential" "substrate DisplacementCurrent" "substrate eCurrent" "substrate hCurrent" "substrate TotalCurrent"
    "substrate Charge" "drain OuterVoltage" "drain InnerVoltage" "drain QuasiFermiPotential" "drain DisplacementCurrent"
    "drain eCurrent" "drain hCurrent" "drain TotalCurrent" "drain Charge" "source OuterVoltage"
    "source InnerVoltage" "source QuasiFermiPotential" "source DisplacementCurrent" "source eCurrent" "source hCurrent"
    "source TotalCurrent" "source Charge" ]
  functions = [
    Time
    OuterVoltage InnerVoltage QuasiFermiPotential DisplacementCurrent eCurrent
    hCurrent TotalCurrent Charge OuterVoltage InnerVoltage
    QuasiFermiPotential DisplacementCurrent eCurrent hCurrent TotalCurrent
    Charge OuterVoltage InnerVoltage QuasiFermiPotential DisplacementCurrent
    eCurrent hCurrent TotalCurrent Charge OuterVoltage
    InnerVoltage QuasiFermiPotential DisplacementCurrent eCurrent hCurrent
    TotalCurrent Charge ]
}

Data {
      0.00000000000000E+00
      1.00000000000000E+00   1.00000000000000E+00   0.00000000000000E+00   0.00000000000000E+00   2.41469542340482E-37
     -2.41469542340482E-37   0.00000000000000E+00   7.97379506344572E-16   0.00000000000000E+00   0.00000000000000E+00
      0.00000000000000E+00   0.00000000000000E+00   6.17465226508961E-15  -2.67431585400100E-18   6.17197794923561E-15
      2.46029274419436E-15  -1.00000000000000E+00  -1.00000000000000E+00   0.00000000000000E+00   0.00000000000000E+00
     -1.14800061612649E-21  -2.06246955742489E-03  -2.06246955742489E-03  -2.13441747479654E-15   0.00000000000000E+00
      0.00000000000000E+00   0.00000000000000E+00   0.00000000000000E+00   1.52352135807553E-22   2.06246955741871E-03
      2.06246955741871E-03  -1.12325477574239E-15
      1.00000000000000E-03
      9.97500000000000E-01   9.97500000000000E-01   0.00000000000000E+00   0.00000000000000E+00   3.18838864096342E-35
     -3.18838864096342E-35   0.00000000000000E+00   7.96133791639187E-16   0.00000000000000E+00   0.00000000000000E+00
      0.00000000000000E+00   0.00000000000000E+00   6.17468659737838E-15  -1.84877413864039E-13  -1.78702727266661E-13
      2.46032944648974E-15  -1.00000000000000E+00  -1.00000000000000E+00   0.00000000000000E+00   0.00000000000000E+00
     -1.14804987675061E-21  -2.06308504233406E-03  -2.06308504233406E-03  -2.13379030477012E-15   0.00000000000000E+00
      0.00000000000000E+00   0.00000000000000E+00   0.00000000000000E+00   1.52398123952302E-22   2.06308504251276E-03
      2.06308504251276E-03  -1.12267293335882E-15
      2.30000000000000E-03
      9.94250000000000E-01   9.94250000000000E-01   0.00000000000000E+00   0.00000000000000E+00   6.76263657804792E-37
     -6.76263657804792E-37   0.00000000000000E+00   7.94514394003497E-16   0.00000000000000E+00   0.00000000000000E+00
      0.00000000000000E+00   0.00000000000000E+00   6.17473121302842E-15  -2.64182433135547E-15   3.53290688167295E-15
      2.46037717402110E-15  -1.00000000000000E+00  -1.00000000000000E+00   0.00000000000000E+00   0.00000000000000E+00
     -1.14811394973757E-21  -2.06388535184963E-03  -2.06388535184963E-03  -2.13297499732247E-15   0.00000000000000E+00
      0.00000000000000E+00   0.00000000000000E+00   0.00000000000000E+00   1.52458107700663E-22   2.06388535184609E-03
      2.06388535184609E-03  -1.12191657070213E-15
      3.99000000000000E-03
      9.90025000000000E-01   9.90025000000000E-01   0.00000000000000E+00   0.00000000000000E+00   1.49581993693619E-36
     -1.49581993693619E-36   0.00000000000000E+00   7.92409230425871E-16   0.00000000000000E+00   0.00000000000000E+00
      0.00000000000000E+00   0.00000000000000E+00   6.17478918590688E-15  -7.53799762860289E-15  -1.36320844269601E-15
      2.46043924441771E-15  -1.00000000000000E+00  -1.00000000000000E+00   0.00000000000000E+00   0.00000000000000E+00
     -1.14819725829844E-21  -2.06492605497684E-03  -2.06492605497684E-03  -2.13191512072065E-15   0.00000000000000E+00
      0.00000000000000E+00   0.00000000000000E+00   0.00000000000000E+00   1.52535568428518E-22   2.06492605497820E-03
      2.06492605497820E-03  -1.12093335412294E-15
      6.18700000000000E-03
      9.84532500000000E-01   9.84532500000000E-01   0.00000000000000E+00   0.00000000000000E+00   3.81449649364463E-36
     -3.81449649364463E-36   0.00000000000000E+00   7.89672608311888E-16   0.00000000000000E+00   0.00000000000000E+00
      0.00000000000000E+00   0.00000000000000E+00   6.17486450443987E-15  -2.15078772645854E-14  -1.53330127601456E-14
      2.46051997756275E-15  -1.00000000000000E+00  -1.00000000000000E+00   0.00000000000000E+00   0.00000000000000E+00
     -1.14830559709213E-21  -2.06627947547258E-03  -2.06627947547258E-03  -2.13053732042970E-15   0.00000000000000E+00
      0.00000000000000E+00   0.00000000000000E+00   0.00000000000000E+00   1.52636751933168E-22   2.06627947548791E-03
      2.06627947548791E-03  -1.11965526544494E-15
      9.04310000000000E-03
      9.77392250000000E-01   9.77392250000000E-01   0.00000000000000E+00   0.00000000000000E+00   1.05250437132674E-35
     -1.05250437132674E-35   0.00000000000000E+00   7.86115153383508E-16   0.00000000000000E+00   0.00000000000000E+00
      0.00000000000000E+00   0.00000000000000E+00   6.17496234092257E-15  -6.13662475437889E-14  -5.51912852028663E-14
      2.46062500110452E-15  -1.00000000000000E+00  -1.00000000000000E+00   0.00000000000000E+00   0.00000000000000E+00
     -1.14844650623641E-21  -2.06803977357039E-03  -2.06803977357039E-03  -2.12874624707605E-15   0.00000000000000E+00
      0.00000000000000E+00   0.00000000000000E+00   0.00000000000000E+00   1.52768843138706E-22   2.06803977362557E-03
      2.06803977362557E-03  -1.11799390741198E-15
      1.27560300000000E-02
      9.68109925000000E-01   9.68109925000000E-01   0.00000000000000E+00   0.00000000000000E+00   2.97446978540420E-35
     -2.97446978540420E-35   0.00000000000000E+00   7.81490723728100E-16   0.00000000000000E+00   0.00000000000000E+00
      0.00000000000000E+00   0.00000000000000E+00   6.17508939825815E-15  -1.75076726570927E-13  -1.68901637172668E-13
      2.46076165100167E-15  -1.00000000000000E+00  -1.00000000000000E+00   0.00000000000000E+00   0.00000000000000E+00
     -1.14862979898982E-21  -2.07032959170663E-03  -2.07032959170663E-03  -2.12641796636752E-15   0.00000000000000E+00
      0.00000000000000E+00   0.00000000000000E+00   0.00000000000000E+00   1.52940041285505E-22   2.07032959187553E-03
      2.07032959187553E-03  -1.11583440836225E-15
      1.75828390000000E-02
      9.56042902500000E-01   9.56042902500000E-01   0.00000000000000E+00   0.00000000000000E+00   8.50704645542925E-35
     -8.50704645542925E-35   0.00000000000000E+00   7.75479411520211E-16   0.00000000000000E+00   0.00000000000000E+00
      0.00000000000000E+00   0.00000000000000E+00   6.17525435534827E-15  -4.99615010378554E-13  -4.93439756023206E-13
      2.46093949803487E-15  -1.00000000000000E+00  -1.00000000000000E+00   0.00000000000000E+00   0.00000000000000E+00
     -1.14886825803914E-21  -2.07330875883172E-03  -2.07330875883172E-03  -2.12339139828956E-15   0.00000000000000E+00
      0.00000000000000E+00   0.00000000000000E+00   0.00000000000000E+00   1.53163720792716E-22   2.07330875932516E-03
      2.07330875932516E-03  -1.11302751126552E-15
      2.38576907000000E-02
      9.40355773250000E-01   9.40355773250000E-01   0.00000000000000E+00   0.00000000000000E+00   2.44702235941902E-34
     -2.44702235941902E-34   0.00000000000000E+00   7.67665468854802E-16   0.00000000000000E+00   0.00000000000000E+00
      0.00000000000000E+00   0.00000000000000E+00   6.17546843782841E-15  -1.42991448899595E-12  -1.42373902055812E-12
      2.46117104249937E-15  -1.00000000000000E+00  -1.00000000000000E+00   0.00000000000000E+00   0.00000000000000E+00
     -1.14917855901172E-21  -2.07718572329759E-03  -2.07718572329759E-03  -2.11945719933912E-15   0.00000000000000E+00
      0.00000000000000E+00   0.00000000000000E+00   0.00000000000000E+00   1.53454593423372E-22   2.07718572472133E-03
      2.07718572472133E-03  -1.10937931201505E-15
      3.20149979100000E-02
      9.19962505225000E-01   9.19962505225000E-01   0.00000000000000E+00   0.00000000000000E+00   2.50625604008524E-37
     -2.50625604008524E-37   0.00000000000000E+00   7.57508658409478E-16   0.00000000000000E+00   0.00000000000000E+00
      0.00000000000000E+00   0.00000000000000E+00   6.17574571865593E-15   2.00556565971993E-18   6.17775128431565E-15
      2.46147228030353E-15  -1.00000000000000E+00  -1.00000000000000E+00   0.00000000000000E+00   0.00000000000000E+00
     -1.14958178023609E-21  -2.08222219003009E-03  -2.08222219003009E-03  -2.11434369605398E-15   0.00000000000000E+00
      0.00000000000000E+00   0.00000000000000E+00   0.00000000000000E+00   1.53830052813788E-22   2.08222219002391E-03
      2.08222219002391E-03  -1.10463724265903E-15
      4.24563511388000E-02
      8.93859122153000E-01   8.93859122153000E-01   0.00000000000000E+00   0.00000000000000E+00   2.50762441449029E-37
     -2.50762441449029E-37   0.00000000000000E+00   7.44510148157693E-16   0.00000000000000E+00   0.00000000000000E+00
      0.00000000000000E+00   0.00000000000000E+00   6.17609948031304E-15   1.44368146493242E-18   6.17754316177798E-15
      2.46185867480045E-15  -1.00000000000000E+00  -1.00000000000000E+00   0.00000000000000E+00   0.00000000000000E+00
     -1.15009832928071E-21  -2.08867526838899E-03  -2.08867526838899E-03  -2.10779960544800E-15   0.00000000000000E+00
      0.00000000000000E+00   0.00000000000000E+00   0.00000000000000E+00   1.54312884600229E-22   2.08867526838281E-03
      2.08867526838281E-03  -1.09856921751015E-15
      5.58212832716640E-02
      8.60446791820840E-01   8.60446791820840E-01   0.00000000000000E+00   0.00000000000000E+00   2.38848009534206E-37
     -2.38848009534206E-37   0.00000000000000E+00   7.27875877075460E-16   0.00000000000000E+00   0.00000000000000E+00
      0.00000000000000E+00   0.00000000000000E+00   6.17655137042031E-15   6.32242731086984E-19   6.17718361315140E-15
      2.46235492090198E-15  -1.00000000000000E+00  -1.00000000000000E+00   0.00000000000000E+00   0.00000000000000E+00
     -1.15076094834999E-21  -2.09695335764884E-03  -2.09695335764884E-03  -2.09942491972107E-15   0.00000000000000E+00
      0.00000000000000E+00   0.00000000000000E+00   0.00000000000000E+00   1.54932380808771E-22   2.09695335764266E-03
      2.09695335764266E-03  -1.09080587825636E-15
      7.29283964017299E-02
      8.17679008995675E-01   8.17679008995675E-01   0.00000000000000E+00   0.00000000000000E+00   2.49380052306417E-37
     -2.49380052306417E-37   0.00000000000000E+00   7.06589912809541E-16   0.00000000000000E+00   0.00000000000000E+00
      0.00000000000000E+00   0.00000000000000E+00   6.17712616854803E-15   8.94773259030006E-18   6.18607390113833E-15
      2.46299199496693E-15  -1.00000000000000E+00  -1.00000000000000E+00   0.00000000000000E+00   0.00000000000000E+00
     -1.15161061652631E-21  -2.10756844480677E-03  -2.10756844480677E-03  -2.08870706630983E-15   0.00000000000000E+00
      0.00000000000000E+00   0.00000000000000E+00   0.00000000000000E+00   1.55727622667792E-22   2.10756844480058E-03
      2.10756844480058E-03  -1.08087484146664E-15
      9.48255012082143E-02
      7.62936246979464E-01   7.62936246979464E-01   0.00000000000000E+00   0.00000000000000E+00   2.54542430561976E-37
     -2.54542430561976E-37   0.00000000000000E+00   6.79354348479167E-16   0.00000000000000E+00   0.00000000000000E+00
      0.00000000000000E+00   0.00000000000000E+00   6.17785742641107E-15   8.29891941356624E-17   6.26084662054673E-15
      2.46381044412473E-15  -1.00000000000000E+00  -1.00000000000000E+00   0.00000000000000E+00   0.00000000000000E+00
     -1.15270034696422E-21  -2.12118318625881E-03  -2.12118318625881E-03  -2.07499211884127E-15   0.00000000000000E+00
      0.00000000000000E+00   0.00000000000000E+00   0.00000000000000E+00   1.56747197646089E-22   2.12118318625255E-03
      2.12118318625255E-03  -1.06817267376263E-15
      1.00000000000000E-01
      7.50000000000000E-01   7.50000000000000E-01   0.00000000000000E+00   0.00000000000000E+00   2.32711426363009E-37
     -2.32711426363009E-37   0.00000000000000E+00   6.72920117110516E-16   0.00000000000000E+00   0.00000000000000E+00
      0.00000000000000E+00   0.00000000000000E+00   6.17802965915965E-15   4.72310778620667E-19   6.17850196993827E-15
      2.46400450561404E-15  -1.00000000000000E+00  -1.00000000000000E+00   0.00000000000000E+00   0.00000000000000E+00
     -1.15295840955427E-21  -2.12440749437693E-03  -2.12440749437693E-03  -2.07175195189768E-15   0.00000000000000E+00
      0.00000000000000E+00   0.00000000000000E+00   0.00000000000000E+00   1.56988701531262E-22   2.12440749437074E-03
      2.12440749437074E-03  -1.06517267082687E-15
      1.28028294152300E-01
      6.79929264619250E-01   6.79929264619250E-01   0.00000000000000E+00   0.00000000000000E+00   3.58141008313682E-37
     -3.58141008313682E-37   0.00000000000000E+00   6.38080928165915E-16   0.00000000000000E+00   0.00000000000000E+00
      0.00000000000000E+00   0.00000000000000E+00   6.17895925047047E-15   1.43714624948051E-15   7.61610549995098E-15
      2.46505991524538E-15  -1.00000000000000E+00  -1.00000000000000E+00   0.00000000000000E+00   0.00000000000000E+00
     -1.15436007945420E-21  -2.14191850551404E-03  -2.14191850551404E-03  -2.05420705728997E-15   0.00000000000000E+00
      0.00000000000000E+00   0.00000000000000E+00   0.00000000000000E+00   1.58300115095514E-22   2.14191850550643E-03
      2.14191850550643E-03  -1.04893378612132E-15
      1.63904510667244E-01
      5.90238723331890E-01   5.90238723331890E-01   0.00000000000000E+00   0.00000000000000E+00   3.25091330791830E-37
     -3.25091330791830E-37   0.00000000000000E+00   5.93519457897925E-16   0.00000000000000E+00   0.00000000000000E+00
      0.00000000000000E+00   0.00000000000000E+00   6.18014177246955E-15   4.50079067483493E-15   1.06809324473045E-14
      2.46642214512827E-15  -1.00000000000000E+00  -1.00000000000000E+00   0.00000000000000E+00   0.00000000000000E+00
     -1.15616153756164E-21  -2.16441986078542E-03  -2.16441986078542E-03  -2.03176543748111E-15   0.00000000000000E+00
      0.00000000000000E+00   0.00000000000000E+00   0.00000000000000E+00   1.59986238064726E-22   2.16441986077474E-03
      2.16441986077474E-03  -1.02817616554508E-15
      2.00000000000000E-01
      5.00000000000000E-01   5.00000000000000E-01   0.00000000000000E+00   0.00000000000000E+00  -3.86886176583750E-37
      3.86886176583750E-37   0.00000000000000E+00   5.48724403554515E-16   0.00000000000000E+00   0.00000000000000E+00
      0.00000000000000E+00   0.00000000000000E+00   6.18132104794829E-15   5.10564160145183E-15   1.12869626494001E-14
      2.46780438981046E-15  -1.00000000000000E+00  -1.00000000000000E+00   0.00000000000000E+00   0.00000000000000E+00
     -1.15797787356979E-21  -2.18710381296365E-03  -2.18710381296365E-03  -2.00920512724189E-15   0.00000000000000E+00
      0.00000000000000E+00   0.00000000000000E+00   0.00000000000000E+00   1.61685943746259E-22   2.18710381295236E-03
      2.18710381295236E-03  -1.00732366612308E-15
      2.45921557139128E-01
      3.85196107152179E-01   3.85196107152179E-01   0.00000000000000E+00   0.00000000000000E+00  -1.24351154913972E-35
      1.24351154913972E-35   0.00000000000000E+00   4.91799152660473E-16   0.00000000000000E+00   0.00000000000000E+00
      0.00000000000000E+00   0.00000000000000E+00   6.18281549694750E-15   2.24703028083233E-14   2.86531183052708E-14
      2.46957735179206E-15  -1.00000000000000E+00  -1.00000000000000E+00   0.00000000000000E+00   0.00000000000000E+00
     -1.16029647626678E-21  -2.21606210865562E-03  -2.21606210865562E-03  -1.98053523987949E-15   0.00000000000000E+00
      0.00000000000000E+00   0.00000000000000E+00   0.00000000000000E+00   1.63857047513759E-22   2.21606210862696E-03
      2.21606210862696E-03  -9.80841264573049E-16
      3.00000000000000E-01
      2.50000000000000E-01   2.50000000000000E-01   0.00000000000000E+00   0.00000000000000E+00  -1.71262329041722E-34
      1.71262329041722E-34   0.00000000000000E+00   4.24864257374615E-16   0.00000000000000E+00   0.00000000000000E+00
      0.00000000000000E+00   0.00000000000000E+00   6.18457196026159E-15   9.08865659759477E-14   9.70711379362093E-14
      2.47168556220241E-15  -1.00000000000000E+00  -1.00000000000000E+00   0.00000000000000E+00   0.00000000000000E+00
     -1.16303869360178E-21  -2.25031237868155E-03  -2.25031237868155E-03  -1.94682019792760E-15   0.00000000000000E+00
      0.00000000000000E+00   0.00000000000000E+00   0.00000000000000E+00   1.66425041259463E-22   2.25031237858447E-03
      2.25031237858447E-03  -9.49729621649422E-16
      3.58779593138084E-01
      1.03051017154789E-01   1.03051017154789E-01   0.00000000000000E+00   0.00000000000000E+00   2.42120456984105E-37
     -2.42120456984105E-37   0.00000000000000E+00   3.52252335061839E-16   0.00000000000000E+00   0.00000000000000E+00
      0.00000000000000E+00   0.00000000000000E+00   6.18648410010149E-15   1.45604166002193E-18   6.18794014176151E-15
      2.47400406529461E-15  -1.00000000000000E+00  -1.00000000000000E+00   0.00000000000000E+00   0.00000000000000E+00
     -1.16602572829606E-21  -2.28762086039025E-03  -2.28762086039025E-03  -1.91024372933262E-15   0.00000000000000E+00
      0.00000000000000E+00   0.00000000000000E+00   0.00000000000000E+00   1.69224450482616E-22   2.28762086038406E-03
      2.28762086038406E-03  -9.16012671023826E-16
      4.00000000000000E-01
      0.00000000000000E+00   0.00000000000000E+00   0.00000000000000E+00   0.00000000000000E+00  -3.36419038548306E-34
      3.36419038548306E-34   0.00000000000000E+00   3.01432146565646E-16   0.00000000000000E+00   0.00000000000000E+00
      0.00000000000000E+00   0.00000000000000E+00   6.18783436923020E-15   2.72180184228312E-14   3.34058527920614E-14
      2.47564335654793E-15  -1.00000000000000E+00  -1.00000000000000E+00   0.00000000000000E+00   0.00000000000000E+00
     -1.16812327224399E-21  -2.31381958334779E-03  -2.31381958334779E-03  -1.88464171878935E-15   0.00000000000000E+00
      0.00000000000000E+00   0.00000000000000E+00   0.00000000000000E+00   1.71190947399989E-22   2.31381958331439E-03
      2.31381958331439E-03  -8.92433784324231E-16
      4.74062287353986E-01
     -1.85155718384966E-01  -1.85155718384966E-01   0.00000000000000E+00   0.00000000000000E+00   2.88343694118779E-37
     -2.88343694118779E-37   0.00000000000000E+00   2.10356883103764E-16   0.00000000000000E+00   0.00000000000000E+00
      0.00000000000000E+00   0.00000000000000E+00   6.19027468157837E-15  -2.02217304923602E-18   6.18825250852913E-15
      2.47861550608778E-15  -1.00000000000000E+00  -1.00000000000000E+00   0.00000000000000E+00   0.00000000000000E+00
     -1.17189200934369E-21  -2.36089148058991E-03  -2.36089148058991E-03  -1.83875628006439E-15   0.00000000000000E+00
      0.00000000000000E+00   0.00000000000000E+00   0.00000000000000E+00   1.74725562966449E-22   2.36089148058372E-03
      2.36089148058372E-03  -8.50216109127158E-16
      5.00000000000000E-01
     -2.50000000000000E-01  -2.50000000000000E-01   0.00000000000000E+00   0.00000000000000E+00  -2.43402275291301E-34
      2.43402275291301E-34   0.00000000000000E+00   1.78540481891913E-16   0.00000000000000E+00   0.00000000000000E+00
      0.00000000000000E+00   0.00000000000000E+00   6.19113574463218E-15   3.28562577712303E-15   9.47676152175521E-15
      2.47966409661683E-15  -1.00000000000000E+00  -1.00000000000000E+00   0.00000000000000E+00   0.00000000000000E+00
     -1.17321087721643E-21  -2.37736410668059E-03  -2.37736410668059E-03  -1.82272582038573E-15   0.00000000000000E+00
      0.00000000000000E+00   0.00000000000000E+00   0.00000000000000E+00   1.75963275761834E-22   2.37736410667111E-03
      2.37736410667111E-03  -8.35478758123008E-16
      5.93318482066023E-01
     -4.83296205165057E-01  -4.83296205165057E-01   0.00000000000000E+00   0.00000000000000E+00   5.12561896905553E-36
     -5.12561896905553E-36   0.00000000000000E+00   6.44632220805460E-17   0.00000000000000E+00   0.00000000000000E+00
      0.00000000000000E+00   0.00000000000000E+00   6.19426768082641E-15   3.48778174204416E-18   6.19775546256845E-15
      2.48346559329681E-15  -1.00000000000000E+00  -1.00000000000000E+00   0.00000000000000E+00   0.00000000000000E+00
     -1.17794824158673E-21  -2.43653340297854E-03  -2.43653340297854E-03  -1.76524861623240E-15   0.00000000000000E+00
      0.00000000000000E+00   0.00000000000000E+00   0.00000000000000E+00   1.80410572736050E-22   2.43653340297235E-03
      2.43653340297235E-03  -7.82680199144947E-16
      6.00000000000000E-01
     -5.00000000000000E-01  -5.00000000000000E-01   0.00000000000000E+00   0.00000000000000E+00  -3.01843494760423E-36
      3.01843494760423E-36   0.00000000000000E+00   5.63207956661572E-17   0.00000000000000E+00   0.00000000000000E+00
      0.00000000000000E+00   0.00000000000000E+00   6.19449400720650E-15   1.65980485052345E-17   6.21109205571174E-15
      2.48373926525482E-15  -1.00000000000000E+00  -1.00000000000000E+00   0.00000000000000E+00   0.00000000000000E+00
     -1.17828644520163E-21  -2.44075750937722E-03  -2.44075750937722E-03  -1.76114597935610E-15   0.00000000000000E+00
      0.00000000000000E+00   0.00000000000000E+00   0.00000000000000E+00   1.80728273569195E-22   2.44075750937101E-03
      2.44075750937101E-03  -7.78914081564877E-16
      7.00000000000000E-01
     -7.50000000000000E-01  -7.50000000000000E-01   0.00000000000000E+00   0.00000000000000E+00   3.78738171391977E-37
     -3.78738171391977E-37   0.00000000000000E+00  -6.50878932422341E-17   0.00000000000000E+00   0.00000000000000E+00
      0.00000000000000E+00   0.00000000000000E+00   6.19791158034068E-15  -2.28811195493819E-19   6.19768276914519E-15
      2.48785590689073E-15  -1.00000000000000E+00  -1.00000000000000E+00   0.00000000000000E+00   0.00000000000000E+00
     -1.18332914300748E-21  -2.50372942346868E-03  -2.50372942346868E-03  -1.69997465474945E-15   0.00000000000000E+00
      0.00000000000000E+00   0.00000000000000E+00   0.00000000000000E+00   1.85465372229231E-22   2.50372942346249E-03
      2.50372942346249E-03  -7.22793358899044E-16
      8.00000000000000E-01
     -1.00000000000000E+00  -1.00000000000000E+00   0.00000000000000E+00   0.00000000000000E+00   2.39893053186423E-37
     -2.39893053186423E-37   0.00000000000000E+00  -1.85543176577972E-16   0.00000000000000E+00   0.00000000000000E+00
      0.00000000000000E+00   0.00000000000000E+00   6.20138788550186E-15   1.40793595791170E-18   6.20279582145977E-15
      2.49200001998313E-15  -1.00000000000000E+00  -1.00000000000000E+00   0.00000000000000E+00   0.00000000000000E+00
     -1.18832101418115E-21  -2.56604617990696E-03  -2.56604617990696E-03  -1.63928545952170E-15   0.00000000000000E+00
      0.00000000000000E+00   0.00000000000000E+00   0.00000000000000E+00   1.90157490929182E-22   2.56604617990076E-03
      2.56604617990076E-03  -6.67171383883461E-16
      9.00000000000000E-01
     -1.25000000000000E+00  -1.25000000000000E+00   0.00000000000000E+00   0.00000000000000E+00   2.61530274460868E-37
     -2.61530274460868E-37   0.00000000000000E+00  -3.04900907586394E-16   0.00000000000000E+00   0.00000000000000E+00
      0.00000000000000E+00   0.00000000000000E+00   6.20491915494212E-15   1.22638189917587E-18   6.20614553684129E-15
      2.49616032467966E-15  -1.00000000000000E+00  -1.00000000000000E+00   0.00000000000000E+00   0.00000000000000E+00
     -1.19324364149522E-21  -2.62749169160157E-03  -2.62749169160157E-03  -1.57915359500292E-15   0.00000000000000E+00
      0.00000000000000E+00   0.00000000000000E+00   0.00000000000000E+00   1.94787698316741E-22   2.62749169159537E-03
      2.62749169159537E-03  -6.12105822090348E-16
      1.00000000000000E+00
     -1.50000000000000E+00  -1.50000000000000E+00   0.00000000000000E+00   0.00000000000000E+00   7.36032948889188E-37
     -7.36032948889188E-37   0.00000000000000E+00  -4.23025264788178E-16   0.00000000000000E+00   0.00000000000000E+00
      0.00000000000000E+00   0.00000000000000E+00   6.20848505822408E-15   1.66948646163727E-18   6.21015454468572E-15
      2.50031966911597E-15  -1.00000000000000E+00  -1.00000000000000E+00   0.00000000000000E+00   0.00000000000000E+00
     -1.19807010111473E-21  -2.68772525513240E-03  -2.68772525513240E-03  -1.51965765186398E-15   0.00000000000000E+00
      0.00000000000000E+00   0.00000000000000E+00   0.00000000000000E+00   1.99330654214752E-22   2.68772525512619E-03
      2.68772525512619E-03  -5.57636752463803E-16
}
