DF-ISE text

Info {
  version   = 1.0
  type      = xyplot
  datasets  = [
    "time"
    "gate OuterVoltage" "gate InnerVoltage" "gate QuasiFermiPotential" "gate DisplacementCurrent" "gate eCurrent"
    "gate hCurrent" "gate TotalCurrent" "gate Charge" "substrate OuterVoltage" "substrate InnerVoltage"
    "substrate QuasiFermiPotential" "substrate DisplacementCurrent" "substrate eCurrent" "substrate hCurrent" "substrate TotalCurrent"
    "substrate Charge" "drain OuterVoltage" "drain InnerVoltage" "drain QuasiFermiPotential" "drain DisplacementCurrent"
    "drain eCurrent" "drain hCurrent" "drain TotalCurrent" "drain Charge" "source OuterVoltage"
    "source InnerVoltage" "source QuasiFermiPotential" "source DisplacementCurrent" "source eCurrent" "source hCurrent"
    "source TotalCurrent" "source Charge" ]
  functions = [
    Time
    OuterVoltage InnerVoltage QuasiFermiPotential DisplacementCurrent eCurrent
    hCurrent TotalCurrent Charge OuterVoltage InnerVoltage
    QuasiFermiPotential DisplacementCurrent eCurrent hCurrent TotalCurrent
    Charge OuterVoltage InnerVoltage QuasiFermiPotential DisplacementCurrent
    eCurrent hCurrent TotalCurrent Charge OuterVoltage
    InnerVoltage QuasiFermiPotential DisplacementCurrent eCurrent hCurrent
    TotalCurrent Charge ]
}

Data {
      0.00000000000000E+00
      1.00000000000000E+00   1.00000000000000E+00   0.00000000000000E+00   0.00000000000000E+00   1.27840985735868E-36
     -1.27840985735868E-36   0.00000000000000E+00   6.18206660588680E-16   0.00000000000000E+00   0.00000000000000E+00
      0.00000000000000E+00   0.00000000000000E+00   6.50719879144423E-13   9.90824015694951E-22   6.50719880135247E-13
      4.20126160400969E-15  -1.00000000000000E+00  -1.00000000000000E+00   0.00000000000000E+00   0.00000000000000E+00
     -8.12719728716862E-22  -6.50719937088189E-13  -6.50719937900908E-13  -3.00692676835388E-15   0.00000000000000E+00
      0.00000000000000E+00   0.00000000000000E+00   0.00000000000000E+00   7.61346988695552E-26   5.77655870606028E-20
      5.77656631953016E-20  -1.81254149624449E-15
      1.00000000000000E-03
      9.97500000000000E-01   9.97500000000000E-01   0.00000000000000E+00   0.00000000000000E+00   1.27017242160971E-36
     -1.27017242160971E-36   0.00000000000000E+00   6.16685128500818E-16   0.00000000000000E+00   0.00000000000000E+00
      0.00000000000000E+00   0.00000000000000E+00   6.50696891328648E-13   2.32878576093075E-21   6.50696893657434E-13
      4.20169893746100E-15  -1.00000000000000E+00  -1.00000000000000E+00   0.00000000000000E+00   0.00000000000000E+00
     -8.12719302711769E-22  -6.50696949387128E-13  -6.50696950199847E-13  -3.00638148971948E-15   0.00000000000000E+00
      0.00000000000000E+00   0.00000000000000E+00   0.00000000000000E+00  -5.09482139931677E-26   5.65424647890809E-20
      5.65424138408669E-20  -1.81200257624234E-15
      2.28000000000000E-03
      9.94300000000000E-01   9.94300000000000E-01   0.00000000000000E+00   0.00000000000000E+00   2.01447782366539E-36
     -2.01447782366539E-36   0.00000000000000E+00   6.14738032745606E-16   0.00000000000000E+00   0.00000000000000E+00
      0.00000000000000E+00   0.00000000000000E+00   6.50667606449321E-13  -2.86241188897805E-17   6.50638982330432E-13
      4.20225793513159E-15  -1.00000000000000E+00  -1.00000000000000E+00   0.00000000000000E+00   0.00000000000000E+00
     -8.12352105377693E-22  -6.50667654864365E-13  -6.50667655676717E-13  -3.00568338671297E-15   0.00000000000000E+00
      0.00000000000000E+00   0.00000000000000E+00   0.00000000000000E+00  -4.05735304778950E-26   2.86733463257487E-17
      2.86733462851751E-17  -1.81131258116423E-15
      3.94400000000000E-03
      9.90140000000000E-01   9.90140000000000E-01   0.00000000000000E+00   0.00000000000000E+00   1.25145359845834E-36
     -1.25145359845834E-36   0.00000000000000E+00   6.12207587086077E-16   0.00000000000000E+00   0.00000000000000E+00
      0.00000000000000E+00   0.00000000000000E+00   6.50629769888010E-13   1.98278259286472E-21   6.50629771870793E-13
      4.20298331053211E-15  -1.00000000000000E+00  -1.00000000000000E+00   0.00000000000000E+00   0.00000000000000E+00
     -8.12717889559681E-22  -6.50629828293449E-13  -6.50629829106167E-13  -3.00477560746683E-15   0.00000000000000E+00
      0.00000000000000E+00   0.00000000000000E+00   0.00000000000000E+00   8.88124199013090E-26   5.72352853249046E-20
      5.72353741373245E-20  -1.81041529015136E-15
      6.07392000000000E-03
      9.84815200000000E-01   9.84815200000000E-01   0.00000000000000E+00   0.00000000000000E+00   1.24808290066272E-36
     -1.24808290066272E-36   0.00000000000000E+00   6.08969896432610E-16   0.00000000000000E+00   0.00000000000000E+00
      0.00000000000000E+00   0.00000000000000E+00   6.50581723645883E-13   2.96751355030685E-21   6.50581726613396E-13
      4.20390961779830E-15  -1.00000000000000E+00  -1.00000000000000E+00   0.00000000000000E+00   0.00000000000000E+00
     -8.12716734681068E-22  -6.50581782310683E-13  -6.50581783123400E-13  -3.00361324607123E-15   0.00000000000000E+00
      0.00000000000000E+00   0.00000000000000E+00   0.00000000000000E+00  -2.39478273449546E-25   5.65102426786712E-20
      5.65100032003977E-20  -1.80926626815968E-15
      8.80021760000000E-03
      9.77999456000000E-01   9.77999456000000E-01   0.00000000000000E+00   0.00000000000000E+00   1.23434240872840E-36
     -1.23434240872840E-36   0.00000000000000E+00   6.04827738878086E-16   0.00000000000000E+00   0.00000000000000E+00
      0.00000000000000E+00   0.00000000000000E+00   6.50520851777854E-13   3.21195552722993E-21   6.50520854989809E-13
      4.20509174462994E-15  -1.00000000000000E+00  -1.00000000000000E+00   0.00000000000000E+00   0.00000000000000E+00
     -8.12715527475648E-22  -6.50520910788434E-13  -6.50520911601149E-13  -3.00212476317693E-15   0.00000000000000E+00
      0.00000000000000E+00   0.00000000000000E+00   0.00000000000000E+00   7.88165768468485E-26   5.66112614537609E-20
      5.66113402703378E-20  -1.80779472033109E-15
      1.22898785280000E-02
      9.69275303680000E-01   9.69275303680000E-01   0.00000000000000E+00   0.00000000000000E+00   1.24602708834040E-36
     -1.24602708834040E-36   0.00000000000000E+00   5.99529173806903E-16   0.00000000000000E+00   0.00000000000000E+00
      0.00000000000000E+00   0.00000000000000E+00   6.50443956640567E-13   1.17709322224762E-21   6.50443957817660E-13
      4.20659908655042E-15  -1.00000000000000E+00  -1.00000000000000E+00   0.00000000000000E+00   0.00000000000000E+00
     -8.12713724904742E-22  -6.50444016121690E-13  -6.50444016934404E-13  -3.00021842651047E-15   0.00000000000000E+00
      0.00000000000000E+00   0.00000000000000E+00   0.00000000000000E+00  -1.31920571357558E-25   5.91168763009103E-20
      5.91167443803389E-20  -1.80590983384686E-15
      1.67566445158400E-02
      9.58108388710400E-01   9.58108388710400E-01   0.00000000000000E+00   0.00000000000000E+00   1.26685930560751E-36
     -1.26685930560751E-36   0.00000000000000E+00   5.92752529068548E-16   0.00000000000000E+00   0.00000000000000E+00
      0.00000000000000E+00   0.00000000000000E+00   6.50347185726059E-13   2.21130050248873E-21   6.50347187937359E-13
      4.20851907755585E-15  -1.00000000000000E+00  -1.00000000000000E+00   0.00000000000000E+00   0.00000000000000E+00
     -8.12711659264167E-22  -6.50347245842311E-13  -6.50347246655023E-13  -2.99777655547935E-15   0.00000000000000E+00
      0.00000000000000E+00   0.00000000000000E+00   0.00000000000000E+00  -1.88606884709007E-25   5.87178521406182E-20
      5.87176635337334E-20  -1.80349505114505E-15
      2.24741049802752E-02
      9.43814737549312E-01   9.43814737549312E-01   0.00000000000000E+00   0.00000000000000E+00   1.25019981429776E-36
     -1.25019981429776E-36   0.00000000000000E+00   5.84087366773290E-16   0.00000000000000E+00   0.00000000000000E+00
      0.00000000000000E+00   0.00000000000000E+00   6.50225985330268E-13  -1.11952613721340E-22   6.50225985218316E-13
      4.21096139045114E-15  -1.00000000000000E+00  -1.00000000000000E+00   0.00000000000000E+00   0.00000000000000E+00
     -8.12708784264131E-22  -6.50226046323123E-13  -6.50226047135832E-13  -2.99464809184358E-15   0.00000000000000E+00
      0.00000000000000E+00   0.00000000000000E+00   0.00000000000000E+00   1.46830926301269E-25   6.19173716110942E-20
      6.19175184420205E-20  -1.80040066538086E-15
      2.97924543747523E-02
      9.25518864063119E-01   9.25518864063119E-01   0.00000000000000E+00   0.00000000000000E+00   1.23947913738757E-36
     -1.23947913738757E-36   0.00000000000000E+00   5.73010401487589E-16   0.00000000000000E+00   0.00000000000000E+00
      0.00000000000000E+00   0.00000000000000E+00   6.50075104256312E-13  -7.33265037586828E-21   6.50075096923662E-13
      4.21406281403374E-15  -1.00000000000000E+00  -1.00000000000000E+00   0.00000000000000E+00   0.00000000000000E+00
     -8.12705249198264E-22  -6.50075166504446E-13  -6.50075167317151E-13  -2.99063899053002E-15   0.00000000000000E+00
      0.00000000000000E+00   0.00000000000000E+00   0.00000000000000E+00   7.77246683911121E-26   7.03934120018546E-20
      7.03934897265230E-20  -1.79643422499131E-15
      3.91599415996829E-02
      9.02100146000793E-01   9.02100146000793E-01   0.00000000000000E+00   0.00000000000000E+00   1.22834337462211E-36
     -1.22834337462211E-36   0.00000000000000E+00   5.58855102680506E-16   0.00000000000000E+00   0.00000000000000E+00
      0.00000000000000E+00   0.00000000000000E+00   6.49888668220352E-13  -6.38445182484344E-20   6.49888604375833E-13
      4.21799272724361E-15  -1.00000000000000E+00  -1.00000000000000E+00   0.00000000000000E+00   0.00000000000000E+00
     -8.12700987679506E-22  -6.49888732286370E-13  -6.49888733099071E-13  -2.98549976236277E-15   0.00000000000000E+00
      0.00000000000000E+00   0.00000000000000E+00   0.00000000000000E+00  -4.32537271304228E-26   1.28723282179929E-19
      1.28723238926202E-19  -1.79134806756135E-15
      5.11503252475941E-02
      8.72124186881015E-01   8.72124186881015E-01   0.00000000000000E+00   0.00000000000000E+00   1.24092591291173E-36
     -1.24092591291173E-36   0.00000000000000E+00   5.40773413678752E-16   0.00000000000000E+00   0.00000000000000E+00
      0.00000000000000E+00   0.00000000000000E+00   6.49660317053228E-13  -4.57239682828838E-19   6.49659859813545E-13
      4.22295894976324E-15  -1.00000000000000E+00  -1.00000000000000E+00   0.00000000000000E+00   0.00000000000000E+00
     -8.12694878157969E-22  -6.49660383784012E-13  -6.49660384596707E-13  -2.97890928302118E-15   0.00000000000000E+00
      0.00000000000000E+00   0.00000000000000E+00   0.00000000000000E+00  -1.37393532058840E-25   5.24783298946242E-19
      5.24783161552710E-19  -1.78482308042081E-15
      6.64980163169205E-02
      8.33754959207699E-01   8.33754959207699E-01   0.00000000000000E+00   0.00000000000000E+00   1.26731294099866E-36
     -1.26731294099866E-36   0.00000000000000E+00   5.17687636036176E-16   0.00000000000000E+00   0.00000000000000E+00
      0.00000000000000E+00   0.00000000000000E+00   6.49383312334195E-13  -3.18089712814365E-18   6.49380131437066E-13
      4.22921354506917E-15  -1.00000000000000E+00  -1.00000000000000E+00   0.00000000000000E+00   0.00000000000000E+00
     -8.12682030047287E-22  -6.49383382394166E-13  -6.49383383206848E-13  -2.97045369138420E-15   0.00000000000000E+00
      0.00000000000000E+00   0.00000000000000E+00   0.00000000000000E+00   6.89884655755493E-26   3.25176971310319E-18
      3.25176978209165E-18  -1.77644748972115E-15
      8.61430608856582E-02
      7.84642347785855E-01   7.84642347785855E-01   0.00000000000000E+00   0.00000000000000E+00   1.25820231923021E-36
     -1.25820231923021E-36   0.00000000000000E+00   4.88230018600138E-16   0.00000000000000E+00   0.00000000000000E+00
      0.00000000000000E+00   0.00000000000000E+00   6.49050256203834E-13  -2.18673463029100E-17   6.49028388857531E-13
      4.23705788566059E-15  -1.00000000000000E+00  -1.00000000000000E+00   0.00000000000000E+00   0.00000000000000E+00
     -8.12641147007025E-22  -6.49050325156021E-13  -6.49050325968662E-13  -2.95959881270181E-15   0.00000000000000E+00
      0.00000000000000E+00   0.00000000000000E+00   0.00000000000000E+00  -7.89539974450247E-26   2.19371112108039E-17
      2.19371111318499E-17  -1.76568909155892E-15
      1.00000000000000E-01
      7.50000000000000E-01   7.50000000000000E-01   0.00000000000000E+00   0.00000000000000E+00   1.26201075919787E-36
     -1.26201075919787E-36   0.00000000000000E+00   4.67511048902990E-16   0.00000000000000E+00   0.00000000000000E+00
      0.00000000000000E+00   0.00000000000000E+00   6.48827346485690E-13  -4.42620441548129E-18   6.48822920281274E-13
      4.24248595680235E-15  -1.00000000000000E+00  -1.00000000000000E+00   0.00000000000000E+00   0.00000000000000E+00
     -8.12672112849327E-22  -6.48827432290868E-13  -6.48827433103540E-13  -2.95192121257036E-15   0.00000000000000E+00
      0.00000000000000E+00   0.00000000000000E+00   0.00000000000000E+00  -2.28219720977506E-25   4.51282249421346E-18
      4.51282226599374E-18  -1.75807579313498E-15
      1.25145657047984E-01
      6.87135857380039E-01   6.87135857380039E-01   0.00000000000000E+00   0.00000000000000E+00   1.22268366774384E-36
     -1.22268366774384E-36   0.00000000000000E+00   4.30031862456938E-16   0.00000000000000E+00   0.00000000000000E+00
      0.00000000000000E+00   0.00000000000000E+00   6.48443687010909E-13   2.81157313953273E-22   6.48443687292066E-13
      4.25212391259703E-15  -1.00000000000000E+00  -1.00000000000000E+00   0.00000000000000E+00   0.00000000000000E+00
     -8.12668915216679E-22  -6.48443797383637E-13  -6.48443798196306E-13  -2.93794591852591E-15   0.00000000000000E+00
      0.00000000000000E+00   0.00000000000000E+00   0.00000000000000E+00   2.58546821636011E-26   1.10904213746392E-19
      1.10904239601074E-19  -1.74420985652805E-15
      1.56829184928444E-01
      6.07927037678889E-01   6.07927037678889E-01   0.00000000000000E+00   0.00000000000000E+00   1.23433428559147E-36
     -1.23433428559147E-36   0.00000000000000E+00   3.83012379731174E-16   0.00000000000000E+00   0.00000000000000E+00
      0.00000000000000E+00   0.00000000000000E+00   6.47992106784217E-13   2.16939992283079E-21   6.47992108953617E-13
      4.26389818394252E-15  -1.00000000000000E+00  -1.00000000000000E+00   0.00000000000000E+00   0.00000000000000E+00
     -8.12661340634708E-22  -6.47992269854206E-13  -6.47992270666867E-13  -2.92026054278554E-15   0.00000000000000E+00
      0.00000000000000E+00   0.00000000000000E+00   0.00000000000000E+00   1.37390220315871E-25   1.61713113903270E-19
      1.61713251293490E-19  -1.72665002088815E-15
      1.96750430057824E-01
      5.08123924855439E-01   5.08123924855439E-01   0.00000000000000E+00   0.00000000000000E+00   1.24454412766395E-36
     -1.24454412766395E-36   0.00000000000000E+00   3.24066396576846E-16   0.00000000000000E+00   0.00000000000000E+00
      0.00000000000000E+00   0.00000000000000E+00   6.47473519626562E-13  -1.12141298545354E-21   6.47473518505149E-13
      4.27818520057777E-15  -1.00000000000000E+00  -1.00000000000000E+00   0.00000000000000E+00   0.00000000000000E+00
     -8.12646576029011E-22  -6.47473838649796E-13  -6.47473839462443E-13  -2.89786059633939E-15   0.00000000000000E+00
      0.00000000000000E+00   0.00000000000000E+00   0.00000000000000E+00  -4.97311557193983E-26   3.20957343162550E-19
      3.20957293431395E-19  -1.70439100081523E-15
      2.00000000000000E-01
      5.00000000000000E-01   5.00000000000000E-01   0.00000000000000E+00   0.00000000000000E+00   1.25079764309596E-36
     -1.25079764309596E-36   0.00000000000000E+00   3.19282024706551E-16   0.00000000000000E+00   0.00000000000000E+00
      0.00000000000000E+00   0.00000000000000E+00   6.47434040491393E-13  -2.91681969018491E-20   6.47434011323196E-13
      4.27932251454601E-15  -1.00000000000000E+00  -1.00000000000000E+00   0.00000000000000E+00   0.00000000000000E+00
     -8.12653016101711E-22  -6.47434380231909E-13  -6.47434381044562E-13  -2.89603172080178E-15   0.00000000000000E+00
      0.00000000000000E+00   0.00000000000000E+00   0.00000000000000E+00   9.01478260096029E-26   3.69721274160101E-19
      3.69721364307927E-19  -1.70257281845078E-15
      2.50300768863019E-01
      3.74248077842453E-01   3.74248077842453E-01   0.00000000000000E+00   0.00000000000000E+00   1.26134931842073E-36
     -1.26134931842073E-36   0.00000000000000E+00   2.45471115509988E-16   0.00000000000000E+00   0.00000000000000E+00
      0.00000000000000E+00   0.00000000000000E+00   6.46877424236846E-13  -1.63098756250413E-19   6.46877261138090E-13
      4.29646209561199E-15  -1.00000000000000E+00  -1.00000000000000E+00   0.00000000000000E+00   0.00000000000000E+00
     -8.11235329749740E-22  -6.46878451185445E-13  -6.46878451996681E-13  -2.86762010173104E-15   0.00000000000000E+00
      0.00000000000000E+00   0.00000000000000E+00   0.00000000000000E+00  -1.73876073998998E-25   1.19085876481319E-18
      1.19085859093712E-18  -1.67431310939095E-15
      3.00000000000000E-01
      2.50000000000000E-01   2.50000000000000E-01   0.00000000000000E+00   0.00000000000000E+00   1.25409950168178E-36
     -1.25409950168178E-36   0.00000000000000E+00   1.72965538669084E-16   0.00000000000000E+00   0.00000000000000E+00
      0.00000000000000E+00   0.00000000000000E+00   6.46363133648197E-13  -1.68134754716753E-19   6.46362965513442E-13
      4.31259216730884E-15  -1.00000000000000E+00  -1.00000000000000E+00   0.00000000000000E+00   0.00000000000000E+00
     -8.12648658086091E-22  -6.46366811364648E-13  -6.46366812177297E-13  -2.83936858421638E-15   0.00000000000000E+00
      0.00000000000000E+00   0.00000000000000E+00   0.00000000000000E+00  -1.36919521786670E-25   3.84666399128714E-18
      3.84666385436762E-18  -1.64618912176154E-15
      3.63378968767403E-01
      9.15525780814912E-02   9.15525780814912E-02   0.00000000000000E+00   0.00000000000000E+00   1.26498893580919E-36
     -1.26498893580919E-36   0.00000000000000E+00   8.10322930805145E-17   0.00000000000000E+00   0.00000000000000E+00
      0.00000000000000E+00   0.00000000000000E+00   6.45451109782045E-13   1.00930665258760E-20   6.45451119875111E-13
      4.33213268566122E-15  -1.00000000000000E+00  -1.00000000000000E+00   0.00000000000000E+00   0.00000000000000E+00
     -8.12671498537262E-22  -6.45473164430514E-13  -6.45473165243186E-13  -2.80310372112807E-15   0.00000000000000E+00
      0.00000000000000E+00   0.00000000000000E+00   0.00000000000000E+00  -3.28670465902474E-26   2.20453681072478E-17
      2.20453680743807E-17  -1.61006125761366E-15
      4.00000000000000E-01
      0.00000000000000E+00   0.00000000000000E+00   0.00000000000000E+00   0.00000000000000E+00   1.25888338232822E-36
     -1.25888338232822E-36   0.00000000000000E+00   2.81451063951317E-17   0.00000000000000E+00   0.00000000000000E+00
      0.00000000000000E+00   0.00000000000000E+00   6.44665302276895E-13  -2.08831922600331E-21   6.44665300188576E-13
      4.34296134684932E-15  -1.00000000000000E+00  -1.00000000000000E+00   0.00000000000000E+00   0.00000000000000E+00
     -8.12681803061741E-22  -6.44731063464273E-13  -6.44731064276954E-13  -2.78203947220667E-15   0.00000000000000E+00
      0.00000000000000E+00   0.00000000000000E+00   0.00000000000000E+00   8.13345978956004E-26   6.57640882964864E-17
      6.57640883778210E-17  -1.58906698103777E-15
      4.78589921271580E-01
     -1.96474803178951E-01  -1.96474803178951E-01   0.00000000000000E+00   0.00000000000000E+00   1.23458474479842E-36
     -1.23458474479842E-36   0.00000000000000E+00  -8.48660675249265E-17   0.00000000000000E+00   0.00000000000000E+00
      0.00000000000000E+00   0.00000000000000E+00   6.42510470710697E-13  -1.20627064065708E-20   6.42510458647990E-13
      4.36521752736797E-15  -1.00000000000000E+00  -1.00000000000000E+00   0.00000000000000E+00   0.00000000000000E+00
     -3.06898697505782E-22  -6.43268789189494E-13  -6.43268789496392E-13  -2.73659248688469E-15   0.00000000000000E+00
      0.00000000000000E+00   0.00000000000000E+00   0.00000000000000E+00  -2.42640445458242E-25   7.58330848645142E-16
      7.58330848402501E-16  -1.54375897295836E-15
      5.00000000000000E-01
     -2.50000000000000E-01  -2.50000000000000E-01   0.00000000000000E+00   0.00000000000000E+00   1.24886930732971E-36
     -1.24886930732971E-36   0.00000000000000E+00  -1.15549363533939E-16   0.00000000000000E+00   0.00000000000000E+00
      0.00000000000000E+00   0.00000000000000E+00   6.41930255582984E-13   1.56636176447796E-20   6.41930271246602E-13
      4.37107013368748E-15  -1.00000000000000E+00  -1.00000000000000E+00   0.00000000000000E+00   0.00000000000000E+00
     -8.12689615290330E-22  -6.43435301716894E-13  -6.43435302529583E-13  -2.72415849195882E-15   0.00000000000000E+00
      0.00000000000000E+00   0.00000000000000E+00   0.00000000000000E+00   2.04862994342278E-25   1.50503128277630E-15
      1.50503128298117E-15  -1.53136227819472E-15
      5.48725751188380E-01
     -3.71814377970949E-01  -3.71814377970949E-01   0.00000000000000E+00   0.00000000000000E+00   1.25139308629626E-36
     -1.25139308629626E-36   0.00000000000000E+00  -1.85226750470911E-16   0.00000000000000E+00   0.00000000000000E+00
      0.00000000000000E+00   0.00000000000000E+00   6.40759091585190E-13  -4.99415662943921E-21   6.40759086591034E-13
      4.38408483784976E-15  -1.00000000000000E+00  -1.00000000000000E+00   0.00000000000000E+00   0.00000000000000E+00
     -8.12737955866099E-22  -6.48108765606871E-13  -6.48108766419609E-13  -2.69578267234336E-15   0.00000000000000E+00
      0.00000000000000E+00   0.00000000000000E+00   0.00000000000000E+00  -2.44122718400523E-25   7.34967982881963E-15
      7.34967982857551E-15  -1.50307541503549E-15
      6.00000000000000E-01
     -5.00000000000000E-01  -5.00000000000000E-01   0.00000000000000E+00   0.00000000000000E+00   1.25092518210788E-36
     -1.25092518210788E-36   0.00000000000000E+00  -2.58334664758066E-16   0.00000000000000E+00   0.00000000000000E+00
      0.00000000000000E+00   0.00000000000000E+00   6.39712345762295E-13  -4.34645533548719E-20   6.39712302297742E-13
      4.39736424893977E-15  -1.00000000000000E+00  -1.00000000000000E+00   0.00000000000000E+00   0.00000000000000E+00
     -8.12764979468138E-22  -6.80039950862925E-13  -6.80039951675690E-13  -2.66581311791169E-15   0.00000000000000E+00
      0.00000000000000E+00   0.00000000000000E+00   0.00000000000000E+00  -8.89513551997498E-26   4.03276493780359E-14
      4.03276493779470E-14  -1.47321646627002E-15
      6.59445416449823E-01
     -6.48613541124558E-01  -6.48613541124558E-01   0.00000000000000E+00   0.00000000000000E+00   1.99091971797500E-36
     -1.99091971797500E-36   0.00000000000000E+00  -3.42848130219297E-16   0.00000000000000E+00   0.00000000000000E+00
      0.00000000000000E+00   0.00000000000000E+00   6.38619865116140E-13  -1.27255180368313E-19   6.38619737860959E-13
      4.41231406001884E-15  -1.00000000000000E+00  -1.00000000000000E+00   0.00000000000000E+00   0.00000000000000E+00
     -8.12802412943555E-22  -9.39053430737602E-13  -9.39053431550404E-13  -2.63094044907044E-15   0.00000000000000E+00
      0.00000000000000E+00   0.00000000000000E+00   0.00000000000000E+00  -1.17154302219220E-26   3.00433693689457E-13
      3.00433693689445E-13  -1.43852548072911E-15
      7.00000000000000E-01
     -7.50000000000000E-01  -7.50000000000000E-01   0.00000000000000E+00   0.00000000000000E+00   1.96004001103671E-36
     -1.96004001103671E-36   0.00000000000000E+00  -4.00372888703345E-16   0.00000000000000E+00   0.00000000000000E+00
      0.00000000000000E+00   0.00000000000000E+00   6.37948690614053E-13   7.32151752415987E-19   6.37949422765805E-13
      4.42230453418508E-15  -1.00000000000000E+00  -1.00000000000000E+00   0.00000000000000E+00   0.00000000000000E+00
     -8.12517698338055E-22  -1.83956996304153E-12  -1.83956996385405E-12  -2.60707955219365E-15   0.00000000000000E+00
      0.00000000000000E+00   0.00000000000000E+00   0.00000000000000E+00   2.33046479320546E-25   1.20162054108801E-12
      1.20162054108825E-12  -1.41485209328809E-15
      7.73712316397781E-01
     -9.34280790994452E-01  -9.34280790994452E-01   0.00000000000000E+00   0.00000000000000E+00   1.22108959565644E-36
     -1.22108959565644E-36   0.00000000000000E+00  -5.04705505575209E-16   0.00000000000000E+00   0.00000000000000E+00
      0.00000000000000E+00   0.00000000000000E+00   6.36912108729607E-13   5.17181870628379E-20   6.36912160447794E-13
      4.44023244118340E-15  -1.00000000000000E+00  -1.00000000000000E+00   0.00000000000000E+00   0.00000000000000E+00
     -8.12890290316023E-22  -1.58977101190682E-11  -1.58977101198811E-11  -2.56358189984312E-15   0.00000000000000E+00
      0.00000000000000E+00   0.00000000000000E+00   0.00000000000000E+00  -2.54457058937763E-25   1.52607979594336E-11
      1.52607979594333E-11  -1.37194503576507E-15
      8.00000000000000E-01
     -1.00000000000000E+00  -1.00000000000000E+00   0.00000000000000E+00   0.00000000000000E+00   1.25994720701735E-36
     -1.25994720701735E-36   0.00000000000000E+00  -5.41855770738696E-16   0.00000000000000E+00   0.00000000000000E+00
      0.00000000000000E+00   0.00000000000000E+00   6.36700264466578E-13  -3.20861357803324E-19   6.36699943605220E-13
      4.44661676169398E-15  -1.00000000000000E+00  -1.00000000000000E+00   0.00000000000000E+00   0.00000000000000E+00
     -8.12912818209809E-22  -3.85675590141694E-11  -3.85675590149823E-11  -2.54803370397195E-15   0.00000000000000E+00
      0.00000000000000E+00   0.00000000000000E+00   0.00000000000000E+00   1.83528067660320E-25   3.79308590713770E-11
      3.79308590713772E-11  -1.35672728698334E-15
      8.91403272333248E-01
     -1.22850818083312E+00  -1.22850818083312E+00   0.00000000000000E+00   0.00000000000000E+00   1.28854076105621E-36
     -1.28854076105621E-36   0.00000000000000E+00  -6.70874929673164E-16   0.00000000000000E+00   0.00000000000000E+00
      0.00000000000000E+00   0.00000000000000E+00   6.36894795331884E-13   4.41149439921054E-20   6.36894839446828E-13
      4.46921055202780E-15  -1.00000000000000E+00  -1.00000000000000E+00   0.00000000000000E+00   0.00000000000000E+00
     -8.12995822069079E-22  -8.99559757791873E-10  -8.99559757792686E-10  -2.49384691855294E-15   0.00000000000000E+00
      0.00000000000000E+00   0.00000000000000E+00   0.00000000000000E+00  -1.19162719894202E-27   8.98922862953238E-10
      8.98922862953238E-10  -1.30448870380170E-15
      9.00000000000000E-01
     -1.25000000000000E+00  -1.25000000000000E+00   0.00000000000000E+00   0.00000000000000E+00  -1.90336850523406E-34
      1.90336850523406E-34   0.00000000000000E+00  -6.83002368432550E-16   0.00000000000000E+00   0.00000000000000E+00
      0.00000000000000E+00   0.00000000000000E+00   6.36971853881637E-13   2.89012517778146E-13   9.25984371659783E-13
      4.47139315222891E-15  -1.00000000000000E+00  -1.00000000000000E+00   0.00000000000000E+00   0.00000000000000E+00
     -8.12991168897570E-22  -1.20994437790039E-09  -1.20994437790121E-09  -2.48874168528608E-15   0.00000000000000E+00
      0.00000000000000E+00   0.00000000000000E+00   0.00000000000000E+00   3.61981387267911E-26   1.20901839352955E-09
      1.20901839352955E-09  -1.29964909851027E-15
      1.00000000000000E+00
     -1.50000000000000E+00  -1.50000000000000E+00   0.00000000000000E+00   0.00000000000000E+00   1.31600021148537E-36
     -1.31600021148537E-36   0.00000000000000E+00  -8.24130728586805E-16   0.00000000000000E+00   0.00000000000000E+00
      0.00000000000000E+00   0.00000000000000E+00   6.38116617098310E-13  -2.62564047841882E-20   6.38116590841905E-13
      4.49808352362146E-15  -1.00000000000000E+00  -1.00000000000000E+00   0.00000000000000E+00   0.00000000000000E+00
     -8.13112161386962E-22  -3.63194621724860E-08  -3.63194621724868E-08  -2.42927616919430E-15   0.00000000000000E+00
      0.00000000000000E+00   0.00000000000000E+00   0.00000000000000E+00   2.52744497866411E-25   3.63188240558964E-08
      3.63188240558964E-08  -1.24467662584036E-15
}
