DF-ISE text

Info {
  version   = 1.0
  type      = xyplot
  datasets  = [
    "time"
    "gate OuterVoltage" "gate InnerVoltage" "gate QuasiFermiPotential" "gate DisplacementCurrent" "gate eCurrent"
    "gate hCurrent" "gate TotalCurrent" "gate Charge" "substrate OuterVoltage" "substrate InnerVoltage"
    "substrate QuasiFermiPotential" "substrate DisplacementCurrent" "substrate eCurrent" "substrate hCurrent" "substrate TotalCurrent"
    "substrate Charge" "drain OuterVoltage" "drain InnerVoltage" "drain QuasiFermiPotential" "drain DisplacementCurrent"
    "drain eCurrent" "drain hCurrent" "drain TotalCurrent" "drain Charge" "source OuterVoltage"
    "source InnerVoltage" "source QuasiFermiPotential" "source DisplacementCurrent" "source eCurrent" "source hCurrent"
    "source TotalCurrent" "source Charge" ]
  functions = [
    Time
    OuterVoltage InnerVoltage QuasiFermiPotential DisplacementCurrent eCurrent
    hCurrent TotalCurrent Charge OuterVoltage InnerVoltage
    QuasiFermiPotential DisplacementCurrent eCurrent hCurrent TotalCurrent
    Charge OuterVoltage InnerVoltage QuasiFermiPotential DisplacementCurrent
    eCurrent hCurrent TotalCurrent Charge OuterVoltage
    InnerVoltage QuasiFermiPotential DisplacementCurrent eCurrent hCurrent
    TotalCurrent Charge ]
}

Data {
      0.00000000000000E+00
      1.00000000000000E+00   1.00000000000000E+00   0.00000000000000E+00   0.00000000000000E+00   4.95793568289992E-37
     -4.95793568289992E-37   0.00000000000000E+00   8.24433374840505E-16   0.00000000000000E+00   0.00000000000000E+00
      0.00000000000000E+00   0.00000000000000E+00   3.36049983204410E-13   1.92807310977647E-18   3.36051911277520E-13
      8.29846123565570E-15  -1.00000000000000E+00  -1.00000000000000E+00   0.00000000000000E+00   0.00000000000000E+00
     -7.64855122247569E-22  -1.16015209521620E-04  -1.16015209521620E-04  -5.66478143351754E-15   0.00000000000000E+00
      0.00000000000000E+00   0.00000000000000E+00   0.00000000000000E+00   9.03416490725442E-24   1.16015209185568E-04
      1.16015209185568E-04  -3.45811317697866E-15
      1.00000000000000E-03
      9.97500000000000E-01   9.97500000000000E-01   0.00000000000000E+00   0.00000000000000E+00   1.67238908804830E-35
     -1.67238908804830E-35   0.00000000000000E+00   8.23209427061137E-16   0.00000000000000E+00   0.00000000000000E+00
      0.00000000000000E+00   0.00000000000000E+00   3.36051941332169E-13  -6.17897602860952E-13  -2.81845661528782E-13
      8.29853715467831E-15  -1.00000000000000E+00  -1.00000000000000E+00   0.00000000000000E+00   0.00000000000000E+00
     -7.64870701163430E-22  -1.16294271325068E-04  -1.16294271325068E-04  -5.66415887963356E-15   0.00000000000000E+00
      0.00000000000000E+00   0.00000000000000E+00   0.00000000000000E+00   9.57073173443157E-24   1.16294271606914E-04
      1.16294271606914E-04  -3.45758770210588E-15
      2.30000000000000E-03
      9.94250000000000E-01   9.94250000000000E-01   0.00000000000000E+00   0.00000000000000E+00   6.97987059819812E-37
     -6.97987059819812E-37   0.00000000000000E+00   8.21618306786017E-16   0.00000000000000E+00   0.00000000000000E+00
      0.00000000000000E+00   0.00000000000000E+00   3.36054488853156E-13  -9.87875138398729E-15   3.26175737469169E-13
      8.29863592695597E-15  -1.00000000000000E+00  -1.00000000000000E+00   0.00000000000000E+00   0.00000000000000E+00
     -7.64908425442753E-22  -1.16657464053600E-04  -1.16657464053600E-04  -5.66334953632659E-15   0.00000000000000E+00
      0.00000000000000E+00   0.00000000000000E+00   0.00000000000000E+00   9.15409577076684E-24   1.16657463727424E-04
      1.16657463727424E-04  -3.45690469741542E-15
      3.99000000000000E-03
      9.90025000000000E-01   9.90025000000000E-01   0.00000000000000E+00   0.00000000000000E+00   1.13245835973126E-36
     -1.13245835973126E-36   0.00000000000000E+00   8.19549870561958E-16   0.00000000000000E+00   0.00000000000000E+00
      0.00000000000000E+00   0.00000000000000E+00   3.36057803908278E-13  -2.82436109693064E-14   3.07814192938972E-13
      8.29876446162715E-15  -1.00000000000000E+00  -1.00000000000000E+00   0.00000000000000E+00   0.00000000000000E+00
     -7.64947608486296E-22  -1.17130308872866E-04  -1.17130308872866E-04  -5.66229735086964E-15   0.00000000000000E+00
      0.00000000000000E+00   0.00000000000000E+00   0.00000000000000E+00   9.18963535416524E-24   1.17130308565052E-04
      1.17130308565052E-04  -3.45601698131945E-15
      6.18700000000000E-03
      9.84532500000000E-01   9.84532500000000E-01   0.00000000000000E+00   0.00000000000000E+00   2.31974809540325E-36
     -2.31974809540325E-36   0.00000000000000E+00   8.16860937807848E-16   0.00000000000000E+00   0.00000000000000E+00
      0.00000000000000E+00   0.00000000000000E+00   3.36062118970545E-13  -8.08530909105270E-14   2.55209028060018E-13
      8.29893177688008E-15  -1.00000000000000E+00  -1.00000000000000E+00   0.00000000000000E+00   0.00000000000000E+00
     -7.64998233280360E-22  -1.17746177881191E-04  -1.17746177881191E-04  -5.66092944387809E-15   0.00000000000000E+00
      0.00000000000000E+00   0.00000000000000E+00   0.00000000000000E+00   9.26284692262166E-24   1.17746177625982E-04
      1.17746177625982E-04  -3.45486327080982E-15
      9.04310000000000E-03
      9.77392250000000E-01   9.77392250000000E-01   0.00000000000000E+00   0.00000000000000E+00   5.75988207965836E-36
     -5.75988207965836E-36   0.00000000000000E+00   8.13365383957730E-16   0.00000000000000E+00   0.00000000000000E+00
      0.00000000000000E+00   0.00000000000000E+00   3.36067737717008E-13  -2.32521992112441E-13   1.03545745604567E-13
      8.29914965699295E-15  -1.00000000000000E+00  -1.00000000000000E+00   0.00000000000000E+00   0.00000000000000E+00
     -7.65063344153186E-22  -1.18548779663778E-04  -1.18548779663778E-04  -5.65915105385528E-15   0.00000000000000E+00
      0.00000000000000E+00   0.00000000000000E+00   0.00000000000000E+00   9.41032250548341E-24   1.18548779560232E-04
      1.18548779560232E-04  -3.45336398709538E-15
      1.27560300000000E-02
      9.68109925000000E-01   9.68109925000000E-01   0.00000000000000E+00   0.00000000000000E+00   1.57038864471902E-35
     -1.57038864471902E-35   0.00000000000000E+00   8.08821265128281E-16   0.00000000000000E+00   0.00000000000000E+00
      0.00000000000000E+00   0.00000000000000E+00   3.36075057333847E-13  -6.80499827247361E-13  -3.44424769913515E-13
      8.29943352195171E-15  -1.00000000000000E+00  -1.00000000000000E+00   0.00000000000000E+00   0.00000000000000E+00
     -7.65145257029456E-22  -1.19595483056078E-04  -1.19595483056078E-04  -5.65683895976888E-15   0.00000000000000E+00
      0.00000000000000E+00   0.00000000000000E+00   0.00000000000000E+00   9.82925086090274E-24   1.19595483400503E-04
      1.19595483400503E-04  -3.45141582731111E-15
      1.75828390000000E-02
      9.56042902500000E-01   9.56042902500000E-01   0.00000000000000E+00   0.00000000000000E+00   4.45176772345274E-35
     -4.45176772345274E-35   0.00000000000000E+00   8.02914059732651E-16   0.00000000000000E+00   0.00000000000000E+00
      0.00000000000000E+00   0.00000000000000E+00   3.36084598253476E-13  -1.50484204793937E-12  -1.16875744968590E-12
      8.29980367572075E-15  -1.00000000000000E+00  -1.00000000000000E+00   0.00000000000000E+00   0.00000000000000E+00
     -7.65253220981116E-22  -1.20961591854356E-04  -1.20961591854356E-04  -5.65383298239799E-15   0.00000000000000E+00
      0.00000000000000E+00   0.00000000000000E+00   0.00000000000000E+00   1.06768734022862E-23   1.20961593023114E-04
      1.20961593023114E-04  -3.44888475305537E-15
      2.38576907000000E-02
      9.40355773250000E-01   9.40355773250000E-01   0.00000000000000E+00   0.00000000000000E+00   4.91843830201434E-37
     -4.91843830201434E-37   0.00000000000000E+00   7.95234984759648E-16   0.00000000000000E+00   0.00000000000000E+00
      0.00000000000000E+00   0.00000000000000E+00   3.36097043091384E-13  -1.06514368675052E-19   3.36096936577016E-13
      8.30028665414247E-15  -1.00000000000000E+00  -1.00000000000000E+00   0.00000000000000E+00   0.00000000000000E+00
     -7.65415595334330E-22  -1.22746816753365E-04  -1.22746816753365E-04  -5.64992471299999E-15   0.00000000000000E+00
      0.00000000000000E+00   0.00000000000000E+00   0.00000000000000E+00   9.60902793047499E-24   1.22746816417269E-04
      1.22746816417269E-04  -3.44559692590214E-15
      3.18895008760000E-02
      9.20276247810000E-01   9.20276247810000E-01   0.00000000000000E+00   0.00000000000000E+00   4.77257086815505E-37
     -4.77257086815505E-37   0.00000000000000E+00   7.85406271890516E-16   0.00000000000000E+00   0.00000000000000E+00
      0.00000000000000E+00   0.00000000000000E+00   3.36113038738102E-13  -1.65721791444123E-18   3.36111381520188E-13
      8.30090774253787E-15  -1.00000000000000E+00  -1.00000000000000E+00   0.00000000000000E+00   0.00000000000000E+00
     -7.65607138482610E-22  -1.25047107317670E-04  -1.25047107317670E-04  -5.64492130459473E-15   0.00000000000000E+00
      0.00000000000000E+00   0.00000000000000E+00   0.00000000000000E+00   9.78814126895697E-24   1.25047106981559E-04
      1.25047106981559E-04  -3.44139270983364E-15
      4.21702179012800E-02
      8.94574455246800E-01   8.94574455246800E-01   0.00000000000000E+00   0.00000000000000E+00   4.88722097788336E-37
     -4.88722097788336E-37   0.00000000000000E+00   7.72826369681457E-16   0.00000000000000E+00   0.00000000000000E+00
      0.00000000000000E+00   0.00000000000000E+00   3.36133616821838E-13   5.00474414060948E-19   3.36134117296252E-13
      8.30170739450892E-15  -1.00000000000000E+00  -1.00000000000000E+00   0.00000000000000E+00   0.00000000000000E+00
     -7.65854377798889E-22  -1.28016017911561E-04  -1.28016017911561E-04  -5.63851563570201E-15   0.00000000000000E+00
      0.00000000000000E+00   0.00000000000000E+00   0.00000000000000E+00   1.00083529005009E-23   1.28016017575427E-04
      1.28016017575427E-04  -3.43601812848839E-15
      5.53295356936384E-02
      8.61676160765904E-01   8.61676160765904E-01   0.00000000000000E+00   0.00000000000000E+00   4.90906609544288E-37
     -4.90906609544288E-37   0.00000000000000E+00   7.56725547842466E-16   0.00000000000000E+00   0.00000000000000E+00
      0.00000000000000E+00   0.00000000000000E+00   3.36160116679955E-13   2.89575942524599E-18   3.36163012439380E-13
      8.30273845596119E-15  -1.00000000000000E+00  -1.00000000000000E+00   0.00000000000000E+00   0.00000000000000E+00
     -7.66174054410344E-22  -1.31855683752725E-04  -1.31855683752725E-04  -5.63031431882049E-15   0.00000000000000E+00
      0.00000000000000E+00   0.00000000000000E+00   0.00000000000000E+00   1.03031944856358E-23   1.31855683416562E-04
      1.31855683416562E-04  -3.42914968498323E-15
      7.21734624678572E-02
      8.19566343830357E-01   8.19566343830357E-01   0.00000000000000E+00   0.00000000000000E+00   4.93014069720640E-37
     -4.93014069720640E-37   0.00000000000000E+00   7.36119011530750E-16   0.00000000000000E+00   0.00000000000000E+00
      0.00000000000000E+00   0.00000000000000E+00   3.36194278343080E-13   2.69205434329662E-17   3.36221198886513E-13
      8.30407019903578E-15  -1.00000000000000E+00  -1.00000000000000E+00   0.00000000000000E+00   0.00000000000000E+00
     -7.66588585718026E-22  -1.36833618660992E-04  -1.36833618660992E-04  -5.61981337706149E-15   0.00000000000000E+00
      0.00000000000000E+00   0.00000000000000E+00   0.00000000000000E+00   1.07077437330255E-23   1.36833618324771E-04
      1.36833618324771E-04  -3.42037583350507E-15
      9.37336887388572E-02
      7.65665778152857E-01   7.65665778152857E-01   0.00000000000000E+00   0.00000000000000E+00   4.72319217768682E-37
     -4.72319217768682E-37   0.00000000000000E+00   7.09746958403134E-16   0.00000000000000E+00   0.00000000000000E+00
      0.00000000000000E+00   0.00000000000000E+00   3.36238363783930E-13   9.45769706943910E-17   3.36332940754625E-13
      8.30579500492663E-15  -1.00000000000000E+00  -1.00000000000000E+00   0.00000000000000E+00   0.00000000000000E+00
     -7.67127351420809E-22  -1.43304781972901E-04  -1.43304781972901E-04  -5.60636817944173E-15   0.00000000000000E+00
      0.00000000000000E+00   0.00000000000000E+00   0.00000000000000E+00   1.11886532468207E-23   1.43304781636569E-04
      1.43304781636569E-04  -3.40917378388804E-15
      1.00000000000000E-01
      7.50000000000000E-01   7.50000000000000E-01   0.00000000000000E+00   0.00000000000000E+00   4.95440479147558E-37
     -4.95440479147558E-37   0.00000000000000E+00   7.02083104497030E-16   0.00000000000000E+00   0.00000000000000E+00
      0.00000000000000E+00   0.00000000000000E+00   3.36251244728274E-13   1.39868643941931E-18   3.36252643414714E-13
      8.30630025009042E-15  -1.00000000000000E+00  -1.00000000000000E+00   0.00000000000000E+00   0.00000000000000E+00
     -7.67285714584438E-22  -1.45206099133110E-04  -1.45206099133110E-04  -5.60245947083927E-15   0.00000000000000E+00
      0.00000000000000E+00   0.00000000000000E+00   0.00000000000000E+00   1.13546097296078E-23   1.45206098796857E-04
      1.45206098796857E-04  -3.40592388374812E-15
      1.27597089626880E-01
      6.81007275932800E-01   6.81007275932800E-01   0.00000000000000E+00   0.00000000000000E+00   5.39138458964415E-37
     -5.39138458964415E-37   0.00000000000000E+00   6.68336785540104E-16   0.00000000000000E+00   0.00000000000000E+00
      0.00000000000000E+00   0.00000000000000E+00   3.36308295153030E-13   3.84049526799946E-15   3.40148790421030E-13
      8.30854599865050E-15  -1.00000000000000E+00  -1.00000000000000E+00   0.00000000000000E+00   0.00000000000000E+00
     -7.67991760999520E-22  -1.53685791458190E-04  -1.53685791458190E-04  -5.58524074388373E-15   0.00000000000000E+00
      0.00000000000000E+00   0.00000000000000E+00   0.00000000000000E+00   1.20006726204355E-23   1.53685791118041E-04
      1.53685791118041E-04  -3.39164204030688E-15
      1.62921364349286E-01
      5.92696589126784E-01   5.92696589126784E-01   0.00000000000000E+00   0.00000000000000E+00   6.20346385124114E-37
     -6.20346385124114E-37   0.00000000000000E+00   6.25155959976881E-16   0.00000000000000E+00   0.00000000000000E+00
      0.00000000000000E+00   0.00000000000000E+00   3.36381969548332E-13   9.23540995665618E-15   3.45617379504988E-13
      8.31146778261350E-15  -1.00000000000000E+00  -1.00000000000000E+00   0.00000000000000E+00   0.00000000000000E+00
     -7.68915563511454E-22  -1.64781626239163E-04  -1.64781626239163E-04  -5.56319108278332E-15   0.00000000000000E+00
      0.00000000000000E+00   0.00000000000000E+00   0.00000000000000E+00   1.28877402650943E-23   1.64781625893545E-04
      1.64781625893545E-04  -3.37343265980700E-15
      2.00000000000000E-01
      5.00000000000000E-01   5.00000000000000E-01   0.00000000000000E+00   0.00000000000000E+00   6.65822747817595E-37
     -6.65822747817595E-37   0.00000000000000E+00   5.79850016412775E-16   0.00000000000000E+00   0.00000000000000E+00
      0.00000000000000E+00   0.00000000000000E+00   3.36459910550891E-13   8.95467349722129E-15   3.45414584048113E-13
      8.31458992310214E-15  -1.00000000000000E+00  -1.00000000000000E+00   0.00000000000000E+00   0.00000000000000E+00
     -7.69907957195332E-22  -1.76701120299361E-04  -1.76701120299361E-04  -5.54003811846182E-15   0.00000000000000E+00
      0.00000000000000E+00   0.00000000000000E+00   0.00000000000000E+00   1.38307158077117E-23   1.76701119953947E-04
      1.76701119953947E-04  -3.35440182105304E-15
      2.45215071644680E-01
      3.86962320888299E-01   3.86962320888299E-01   0.00000000000000E+00   0.00000000000000E+00   3.90477991242445E-37
     -3.90477991242445E-37   0.00000000000000E+00   5.24632903678838E-16   0.00000000000000E+00   0.00000000000000E+00
      0.00000000000000E+00   0.00000000000000E+00   3.36555559470177E-13   3.32510767342598E-14   3.69806636204436E-13
      8.31846772185407E-15  -1.00000000000000E+00  -1.00000000000000E+00   0.00000000000000E+00   0.00000000000000E+00
     -7.71147137125693E-22  -1.91586346692744E-04  -1.91586346692744E-04  -5.51179578025026E-15   0.00000000000000E+00
      0.00000000000000E+00   0.00000000000000E+00   0.00000000000000E+00   1.50049536663582E-23   1.91586346322938E-04
      1.91586346322938E-04  -3.33130484528259E-15
      3.00000000000000E-01
      2.50000000000000E-01   2.50000000000000E-01   0.00000000000000E+00   0.00000000000000E+00  -1.10534602323519E-35
      1.10534602323519E-35   0.00000000000000E+00   4.57780402779436E-16   0.00000000000000E+00   0.00000000000000E+00
      0.00000000000000E+00   0.00000000000000E+00   3.36672048747527E-13   9.81091349583848E-14   4.34781183705912E-13
      8.32326411764319E-15  -1.00000000000000E+00  -1.00000000000000E+00   0.00000000000000E+00   0.00000000000000E+00
     -7.72687560314090E-22  -2.10087767350875E-04  -2.10087767350875E-04  -5.47757104447402E-15   0.00000000000000E+00
      0.00000000000000E+00   0.00000000000000E+00   0.00000000000000E+00   1.64674870338659E-23   2.10087766916094E-04
      2.10087766916094E-04  -3.30347347594860E-15
      3.57875291705191E-01
      1.05311770737023E-01   1.05311770737023E-01   0.00000000000000E+00   0.00000000000000E+00  -7.19370811821389E-35
      7.19370811821389E-35   0.00000000000000E+00   3.87228004798387E-16   0.00000000000000E+00   0.00000000000000E+00
      0.00000000000000E+00   0.00000000000000E+00   3.36795568950925E-13   1.89173272573214E-13   5.25968841524139E-13
      8.32843634332130E-15  -1.00000000000000E+00  -1.00000000000000E+00   0.00000000000000E+00   0.00000000000000E+00
     -7.74355780189104E-22  -2.30128628424004E-04  -2.30128628424004E-04  -5.44141810106297E-15   0.00000000000000E+00
      0.00000000000000E+00   0.00000000000000E+00   0.00000000000000E+00   1.80428678025522E-23   2.30128627898036E-04
      2.30128627898036E-04  -3.27424624705677E-15
      4.00000000000000E-01
      0.00000000000000E+00   0.00000000000000E+00   0.00000000000000E+00   0.00000000000000E+00  -2.47977398259636E-35
      2.47977398259636E-35   0.00000000000000E+00   3.35928737297181E-16   0.00000000000000E+00   0.00000000000000E+00
      0.00000000000000E+00   0.00000000000000E+00   3.36885694317851E-13   2.52297723404085E-14   3.62115466658259E-13
      8.33226307798709E-15  -1.00000000000000E+00  -1.00000000000000E+00   0.00000000000000E+00   0.00000000000000E+00
     -7.75593037830390E-22  -2.44999391968783E-04  -2.44999391968783E-04  -5.41511144525289E-15   0.00000000000000E+00
      0.00000000000000E+00   0.00000000000000E+00   0.00000000000000E+00   1.91634626194630E-23   2.44999391606668E-04
      2.44999391606668E-04  -3.25308037003138E-15
      4.74080373382644E-01
     -1.85200933456610E-01  -1.85200933456610E-01   0.00000000000000E+00   0.00000000000000E+00   4.75108973948695E-37
     -4.75108973948695E-37   0.00000000000000E+00   2.45837193669588E-16   0.00000000000000E+00   0.00000000000000E+00
      0.00000000000000E+00   0.00000000000000E+00   3.37044618472532E-13   1.87578661345556E-18   3.37046494259146E-13
      8.33910667301700E-15  -1.00000000000000E+00  -1.00000000000000E+00   0.00000000000000E+00   0.00000000000000E+00
     -7.77811397999107E-22  -2.71654385340975E-04  -2.71654385340975E-04  -5.36887683595023E-15   0.00000000000000E+00
      0.00000000000000E+00   0.00000000000000E+00   0.00000000000000E+00   2.12596958389021E-23   2.71654385003928E-04
      2.71654385003928E-04  -3.21606703073637E-15
      5.00000000000000E-01
     -2.50000000000000E-01  -2.50000000000000E-01   0.00000000000000E+00   0.00000000000000E+00  -1.55114028223495E-35
      1.55114028223495E-35   0.00000000000000E+00   2.14356603143777E-16   0.00000000000000E+00   0.00000000000000E+00
      0.00000000000000E+00   0.00000000000000E+00   3.37100369224450E-13   2.39255340002865E-15   3.39492922624478E-13
      8.34153243444483E-15  -1.00000000000000E+00  -1.00000000000000E+00   0.00000000000000E+00   0.00000000000000E+00
     -7.78598644904260E-22  -2.81114422326435E-04  -2.81114422326435E-04  -5.35271176012497E-15   0.00000000000000E+00
      0.00000000000000E+00   0.00000000000000E+00   0.00000000000000E+00   2.19908384104960E-23   2.81114421986942E-04
      2.81114421986942E-04  -3.20317727746365E-15
      5.93341270462131E-01
     -4.83353176155329E-01  -4.83353176155329E-01   0.00000000000000E+00   0.00000000000000E+00   7.92164163115960E-37
     -7.92164163115960E-37   0.00000000000000E+00   1.01189048180091E-16   0.00000000000000E+00   0.00000000000000E+00
      0.00000000000000E+00   0.00000000000000E+00   3.37301922254696E-13   1.54840058133765E-18   3.37303470655277E-13
      8.35038795622582E-15  -1.00000000000000E+00  -1.00000000000000E+00   0.00000000000000E+00   0.00000000000000E+00
     -7.81473123062836E-22  -3.15657482148012E-04  -3.15657482148012E-04  -5.29456916091855E-15   0.00000000000000E+00
      0.00000000000000E+00   0.00000000000000E+00   0.00000000000000E+00   2.47041733167278E-23   3.15657481810709E-04
      3.15657481810709E-04  -3.15700784348737E-15
      6.00000000000000E-01
     -5.00000000000000E-01  -5.00000000000000E-01   0.00000000000000E+00   0.00000000000000E+00   3.34842103029276E-37
     -3.34842103029276E-37   0.00000000000000E+00   9.31288225101934E-17   0.00000000000000E+00   0.00000000000000E+00
      0.00000000000000E+00   0.00000000000000E+00   3.37316354699882E-13   7.15436493315367E-18   3.37323509064816E-13
      8.35102624026592E-15  -1.00000000000000E+00  -1.00000000000000E+00   0.00000000000000E+00   0.00000000000000E+00
     -7.81680250998292E-22  -3.18146765272706E-04  -3.18146765272706E-04  -5.29042635115034E-15   0.00000000000000E+00
      0.00000000000000E+00   0.00000000000000E+00   0.00000000000000E+00   2.48938152012783E-23   3.18146764935382E-04
      3.18146764935382E-04  -3.15372871162574E-15
      7.00000000000000E-01
     -7.50000000000000E-01  -7.50000000000000E-01   0.00000000000000E+00   0.00000000000000E+00   2.75349448901990E-35
     -2.75349448901990E-35   0.00000000000000E+00  -2.76907839648574E-17   0.00000000000000E+00   0.00000000000000E+00
      0.00000000000000E+00   0.00000000000000E+00   3.37534135111538E-13  -1.57228120816606E-18   3.37532562830330E-13
      8.36070322060223E-15  -1.00000000000000E+00  -1.00000000000000E+00   0.00000000000000E+00   0.00000000000000E+00
     -7.84817312484911E-22  -3.55850691043080E-04  -3.55850691043080E-04  -5.22830719689581E-15   0.00000000000000E+00
      0.00000000000000E+00   0.00000000000000E+00   0.00000000000000E+00   2.78368245387667E-23   3.55850690705546E-04
      3.55850690705546E-04  -3.10470523974161E-15
      8.00000000000000E-01
     -1.00000000000000E+00  -1.00000000000000E+00   0.00000000000000E+00   0.00000000000000E+00   8.72556048834488E-35
     -8.72556048834488E-35   0.00000000000000E+00  -1.48045157330082E-16   0.00000000000000E+00   0.00000000000000E+00
      0.00000000000000E+00   0.00000000000000E+00   3.37754083282598E-13  -3.59862753170006E-19   3.37753723419845E-13
      8.37052832831245E-15  -1.00000000000000E+00  -1.00000000000000E+00   0.00000000000000E+00   0.00000000000000E+00
     -7.87992179522210E-22  -3.94013360713306E-04  -3.94013360713306E-04  -5.16640256776468E-15   0.00000000000000E+00
      0.00000000000000E+00   0.00000000000000E+00   0.00000000000000E+00   3.08410499780987E-23   3.94013360375553E-04
      3.94013360375553E-04  -3.05608060321772E-15
      9.00000000000000E-01
     -1.25000000000000E+00  -1.25000000000000E+00   0.00000000000000E+00   0.00000000000000E+00   2.49104200364760E-34
     -2.49104200364760E-34   0.00000000000000E+00  -2.67887238776207E-16   0.00000000000000E+00   0.00000000000000E+00
      0.00000000000000E+00   0.00000000000000E+00   3.37976383037713E-13  -4.81534103638776E-20   3.37976334884303E-13
      8.38047280159794E-15  -1.00000000000000E+00  -1.00000000000000E+00   0.00000000000000E+00   0.00000000000000E+00
     -7.91189637473361E-22  -4.32451892254824E-04  -4.32451892254824E-04  -5.10475468924659E-15   0.00000000000000E+00
      0.00000000000000E+00   0.00000000000000E+00   0.00000000000000E+00   3.38494002831267E-23   4.32451891916849E-04
      4.32451891916849E-04  -3.00783087357520E-15
      1.00000000000000E+00
     -1.50000000000000E+00  -1.50000000000000E+00   0.00000000000000E+00   0.00000000000000E+00   8.14100845299112E-34
     -8.14100845299112E-34   0.00000000000000E+00  -3.87179867922060E-16   0.00000000000000E+00   0.00000000000000E+00
      0.00000000000000E+00   0.00000000000000E+00   3.38201206911783E-13   1.15938372685102E-18   3.38202366295510E-13
      8.39051146992824E-15  -1.00000000000000E+00  -1.00000000000000E+00   0.00000000000000E+00   0.00000000000000E+00
     -7.94396691316057E-22  -4.71012160006707E-04  -4.71012160006707E-04  -5.04339674026583E-15   0.00000000000000E+00
      0.00000000000000E+00   0.00000000000000E+00   0.00000000000000E+00   3.68566597076869E-23   4.71012159668504E-04
      4.71012159668504E-04  -2.95993486174036E-15
}
