DF-ISE text

Info {
  version   = 1.0
  type      = xyplot
  datasets  = [
    "time"
    "gate OuterVoltage" "gate InnerVoltage" "gate QuasiFermiPotential" "gate DisplacementCurrent" "gate eCurrent"
    "gate hCurrent" "gate TotalCurrent" "gate Charge" "substrate OuterVoltage" "substrate InnerVoltage"
    "substrate QuasiFermiPotential" "substrate DisplacementCurrent" "substrate eCurrent" "substrate hCurrent" "substrate TotalCurrent"
    "substrate Charge" "drain OuterVoltage" "drain InnerVoltage" "drain QuasiFermiPotential" "drain DisplacementCurrent"
    "drain eCurrent" "drain hCurrent" "drain TotalCurrent" "drain Charge" "source OuterVoltage"
    "source InnerVoltage" "source QuasiFermiPotential" "source DisplacementCurrent" "source eCurrent" "source hCurrent"
    "source TotalCurrent" "source Charge" ]
  functions = [
    Time
    OuterVoltage InnerVoltage QuasiFermiPotential DisplacementCurrent eCurrent
    hCurrent TotalCurrent Charge OuterVoltage InnerVoltage
    QuasiFermiPotential DisplacementCurrent eCurrent hCurrent TotalCurrent
    Charge OuterVoltage InnerVoltage QuasiFermiPotential DisplacementCurrent
    eCurrent hCurrent TotalCurrent Charge OuterVoltage
    InnerVoltage QuasiFermiPotential DisplacementCurrent eCurrent hCurrent
    TotalCurrent Charge ]
}

Data {
      0.00000000000000E+00
     -1.00000000000000E+00  -1.00000000000000E+00   0.00000000000000E+00   0.00000000000000E+00   3.93959723797670E-36
     -3.93959723797670E-36   0.00000000000000E+00  -7.46103583490269E-16   0.00000000000000E+00   0.00000000000000E+00
      0.00000000000000E+00   0.00000000000000E+00   9.90693679334587E-22  -1.77139108687812E-14  -1.77139098780875E-14
     -6.71469416902126E-15   1.00000000000000E+00   1.00000000000000E+00   0.00000000000000E+00   0.00000000000000E+00
      1.77139346281856E-14   8.22627549771295E-21   1.77139428544611E-14   4.61505462715444E-15   0.00000000000000E+00
      0.00000000000000E+00   0.00000000000000E+00   0.00000000000000E+00  -3.29765473489046E-20   1.73687600868736E-25
     -3.29763736613037E-20   2.84574312535708E-15
      1.00000000000000E-03
     -9.97500000000000E-01  -9.97500000000000E-01   0.00000000000000E+00   0.00000000000000E+00   3.97226033108009E-36
     -3.97226033108009E-36   0.00000000000000E+00  -7.44215023427351E-16   0.00000000000000E+00   0.00000000000000E+00
      0.00000000000000E+00   0.00000000000000E+00  -8.01655452456138E-22  -1.77130907875317E-14  -1.77130915891871E-14
     -6.71527672260068E-15   1.00000000000000E+00   1.00000000000000E+00   0.00000000000000E+00   0.00000000000000E+00
      1.77131149235953E-14   8.22627650844096E-21   1.77131231498718E-14   4.61440814632864E-15   0.00000000000000E+00
      0.00000000000000E+00   0.00000000000000E+00   0.00000000000000E+00  -3.15601556727270E-20  -5.28953550106257E-25
     -3.15606846262771E-20   2.84508359969940E-15
      2.28000000000000E-03
     -9.94300000000000E-01  -9.94300000000000E-01   0.00000000000000E+00   0.00000000000000E+00   7.81735666256950E-36
     -7.81735666256950E-36   0.00000000000000E+00  -7.41798224018263E-16   0.00000000000000E+00   0.00000000000000E+00
      0.00000000000000E+00   0.00000000000000E+00   9.90682587982111E-19  -1.77120442761282E-14  -1.77110535935403E-14
     -6.71602152055203E-15   1.00000000000000E+00   1.00000000000000E+00   0.00000000000000E+00   0.00000000000000E+00
      1.77120680825643E-14   8.22627168631746E-21   1.77120763088359E-14   4.61358050206067E-15   0.00000000000000E+00
      0.00000000000000E+00   0.00000000000000E+00   0.00000000000000E+00  -1.02281854601991E-18   1.03250355057811E-22
     -1.02271529566485E-18   2.84423924250963E-15
      3.94400000000000E-03
     -9.90140000000000E-01  -9.90140000000000E-01   0.00000000000000E+00   0.00000000000000E+00   1.49644412235048E-35
     -1.49644412235048E-35   0.00000000000000E+00  -7.38657319380873E-16   0.00000000000000E+00   0.00000000000000E+00
      0.00000000000000E+00   0.00000000000000E+00   2.81470197531809E-18  -1.77106889934731E-14  -1.77078742914978E-14
     -6.71698829775705E-15   1.00000000000000E+00   1.00000000000000E+00   0.00000000000000E+00   0.00000000000000E+00
      1.77107126587607E-14   8.22626425923452E-21   1.77107208850249E-14   4.61250431472611E-15   0.00000000000000E+00
      0.00000000000000E+00   0.00000000000000E+00   0.00000000000000E+00  -2.84688612236136E-18   2.92595297107056E-22
     -2.84659352706425E-18   2.84314130241180E-15
      6.10720000000000E-03
     -9.84732000000000E-01  -9.84732000000000E-01   0.00000000000000E+00   0.00000000000000E+00   3.97758342957465E-36
     -3.97758342957465E-36   0.00000000000000E+00  -7.34575720190936E-16   0.00000000000000E+00   0.00000000000000E+00
      0.00000000000000E+00   0.00000000000000E+00  -1.37125306172753E-21  -1.77089351470858E-14  -1.77089365183389E-14
     -6.71824264342161E-15   1.00000000000000E+00   1.00000000000000E+00   0.00000000000000E+00   0.00000000000000E+00
      1.77089595894266E-14   8.22628167566068E-21   1.77089678157083E-14   4.61110484907165E-15   0.00000000000000E+00
      0.00000000000000E+00   0.00000000000000E+00   0.00000000000000E+00  -3.12973444036705E-20  -2.49396963483871E-26
     -3.12973693433668E-20   2.84171351454089E-15
      8.87609600000000E-03
     -9.77809760000000E-01  -9.77809760000000E-01   0.00000000000000E+00   0.00000000000000E+00   3.88965972139992E-36
     -3.88965972139992E-36   0.00000000000000E+00  -7.29353868287260E-16   0.00000000000000E+00   0.00000000000000E+00
      0.00000000000000E+00   0.00000000000000E+00  -1.15530278582581E-21  -1.77067045078954E-14  -1.77067056631982E-14
     -6.71984414700175E-15   1.00000000000000E+00   1.00000000000000E+00   0.00000000000000E+00   0.00000000000000E+00
      1.77067290038803E-14   8.22628447738652E-21   1.77067372301648E-14   4.60931283682340E-15   0.00000000000000E+00
      0.00000000000000E+00   0.00000000000000E+00   0.00000000000000E+00  -3.15664878842480E-20  -4.78726766077500E-25
     -3.15669666110140E-20   2.83988517846560E-15
      1.24202828800000E-02
     -9.68949292800000E-01  -9.68949292800000E-01   0.00000000000000E+00   0.00000000000000E+00   3.85087005208568E-36
     -3.85087005208568E-36   0.00000000000000E+00  -7.22674136638179E-16   0.00000000000000E+00   0.00000000000000E+00
      0.00000000000000E+00   0.00000000000000E+00   2.39172261458631E-21  -1.77038716909081E-14  -1.77038692991855E-14
     -6.72188743610927E-15   1.00000000000000E+00   1.00000000000000E+00   0.00000000000000E+00   0.00000000000000E+00
      1.77038962823137E-14   8.22628806408768E-21   1.77039045086017E-14   4.60701792067611E-15   0.00000000000000E+00
      0.00000000000000E+00   0.00000000000000E+00   0.00000000000000E+00  -3.52096396949075E-20   2.23523249847765E-25
     -3.52094161716577E-20   2.83754365207133E-15
      1.69568420864000E-02
     -9.57607894784000E-01  -9.57607894784000E-01   0.00000000000000E+00   0.00000000000000E+00   3.93383208175387E-36
     -3.93383208175387E-36   0.00000000000000E+00  -7.14130996200984E-16   0.00000000000000E+00   0.00000000000000E+00
      0.00000000000000E+00   0.00000000000000E+00   2.37153556486730E-21  -1.77002817244401E-14  -1.77002793529045E-14
     -6.72449200717706E-15   1.00000000000000E+00   1.00000000000000E+00   0.00000000000000E+00   0.00000000000000E+00
      1.77003068358917E-14   8.22629265600450E-21   1.77003150621844E-14   4.60407856003783E-15   0.00000000000000E+00
      0.00000000000000E+00   0.00000000000000E+00   0.00000000000000E+00  -3.57093810180429E-20   1.01133329232509E-25
     -3.57092798847137E-20   2.83454444334020E-15
      2.27636378705920E-02
     -9.43090905323520E-01  -9.43090905323520E-01   0.00000000000000E+00   0.00000000000000E+00   3.88816352680695E-36
     -3.88816352680695E-36   0.00000000000000E+00  -7.03207043524567E-16   0.00000000000000E+00   0.00000000000000E+00
      0.00000000000000E+00   0.00000000000000E+00  -2.96054855668194E-23  -1.76957447143360E-14  -1.76957447439415E-14
     -6.72780817277414E-15   1.00000000000000E+00   1.00000000000000E+00   0.00000000000000E+00   0.00000000000000E+00
      1.76957704833860E-14   8.22629853667507E-21   1.76957787096845E-14   4.60031311951383E-15   0.00000000000000E+00
      0.00000000000000E+00   0.00000000000000E+00   0.00000000000000E+00  -3.39657699956225E-20   2.69822067545253E-26
     -3.39657430134158E-20   2.83070209678487E-15
      3.01963364743578E-02
     -9.24509158814106E-01  -9.24509158814106E-01   0.00000000000000E+00   0.00000000000000E+00   3.93707069942602E-36
     -3.93707069942602E-36   0.00000000000000E+00  -6.89242699333958E-16   0.00000000000000E+00   0.00000000000000E+00
      0.00000000000000E+00   0.00000000000000E+00   2.48254665701463E-21  -1.76900321441195E-14  -1.76900296615728E-14
     -6.73202405535713E-15   1.00000000000000E+00   1.00000000000000E+00   0.00000000000000E+00   0.00000000000000E+00
      1.76900586019578E-14   8.22630606612498E-21   1.76900668282639E-14   4.59548834820570E-15   0.00000000000000E+00
      0.00000000000000E+00   0.00000000000000E+00   0.00000000000000E+00  -3.71668949131799E-20   2.03862153910006E-25
     -3.71666910510260E-20   2.82577840648539E-15
      3.97101906871779E-02
     -9.00724523282055E-01  -9.00724523282055E-01   0.00000000000000E+00   0.00000000000000E+00   3.94516044162486E-36
     -3.94516044162486E-36   0.00000000000000E+00  -6.71398017248785E-16   0.00000000000000E+00   0.00000000000000E+00
      0.00000000000000E+00   0.00000000000000E+00  -5.48592716343886E-23  -1.76828784262134E-14  -1.76828784810727E-14
     -6.73737356509394E-15   1.00000000000000E+00   1.00000000000000E+00   0.00000000000000E+00   0.00000000000000E+00
      1.76829062196113E-14   8.22631570382616E-21   1.76829144459270E-14   4.58930444826946E-15   0.00000000000000E+00
      0.00000000000000E+00   0.00000000000000E+00   0.00000000000000E+00  -3.59652249648103E-20   3.70700284513509E-25
     -3.59648542645258E-20   2.81946713407327E-15
      5.18879240795878E-02
     -8.70280189801031E-01  -8.70280189801031E-01   0.00000000000000E+00   0.00000000000000E+00   3.92227118390692E-36
     -3.92227118390692E-36   0.00000000000000E+00  -6.48604695672639E-16   0.00000000000000E+00   0.00000000000000E+00
      0.00000000000000E+00   0.00000000000000E+00   1.89397098667613E-20  -1.76739980059937E-14  -1.76739790662838E-14
     -6.74414510822620E-15   1.00000000000000E+00   1.00000000000000E+00   0.00000000000000E+00   0.00000000000000E+00
      1.76740271659180E-14   8.22632801559060E-21   1.76740353922460E-14   4.58137566436830E-15   0.00000000000000E+00
      0.00000000000000E+00   0.00000000000000E+00   0.00000000000000E+00  -5.63262047344561E-20   2.42517032920889E-25
     -5.63259622174232E-20   2.81137413953055E-15
      6.74754228218723E-02
     -8.31311442945319E-01  -8.31311442945319E-01   0.00000000000000E+00   0.00000000000000E+00   3.97266806260216E-36
     -3.97266806260216E-36   0.00000000000000E+00  -6.19505946028864E-16   0.00000000000000E+00   0.00000000000000E+00
      0.00000000000000E+00   0.00000000000000E+00   1.73543734484495E-19  -1.76631427136785E-14  -1.76629691699440E-14
     -6.75269048430526E-15   1.00000000000000E+00   1.00000000000000E+00   0.00000000000000E+00   0.00000000000000E+00
      1.76631744446689E-14   8.22634361772787E-21   1.76631826710126E-14   4.57120496157528E-15   0.00000000000000E+00
      0.00000000000000E+00   0.00000000000000E+00   0.00000000000000E+00  -2.13502825207099E-19   1.75653648728182E-24
     -2.13501068670612E-19   2.80099146875885E-15
      8.74274212119966E-02
     -7.81431446970009E-01  -7.81431446970009E-01   0.00000000000000E+00   0.00000000000000E+00   4.35430544824288E-36
     -4.35430544824288E-36   0.00000000000000E+00  -5.82381253830199E-16   0.00000000000000E+00   0.00000000000000E+00
      0.00000000000000E+00   0.00000000000000E+00   1.30127319331544E-18  -1.76502480938931E-14  -1.76489468206998E-14
     -6.76343306371859E-15   1.00000000000000E+00   1.00000000000000E+00   0.00000000000000E+00   0.00000000000000E+00
      1.76502840657589E-14   8.22636218336206E-21   1.76502922921211E-14   4.55815086200960E-15   0.00000000000000E+00
      0.00000000000000E+00   0.00000000000000E+00   0.00000000000000E+00  -1.34548083602646E-18   9.41478949996770E-24
     -1.34547142123696E-18   2.78766345553920E-15
      1.00000000000000E-01
     -7.50000000000000E-01  -7.50000000000000E-01   0.00000000000000E+00   0.00000000000000E+00   3.93822806773336E-36
     -3.93822806773336E-36   0.00000000000000E+00  -5.59055178416055E-16   0.00000000000000E+00   0.00000000000000E+00
      0.00000000000000E+00   0.00000000000000E+00   1.49587037401815E-19  -1.76427979706946E-14  -1.76426483836572E-14
     -6.77009260874355E-15   1.00000000000000E+00   1.00000000000000E+00   0.00000000000000E+00   0.00000000000000E+00
      1.76428376294417E-14   8.22637643291459E-21   1.76428458558181E-14   4.54990455279644E-15   0.00000000000000E+00
      0.00000000000000E+00   0.00000000000000E+00   0.00000000000000E+00  -1.97473387749153E-19   1.22684046467069E-24
     -1.97472160908688E-19   2.77924323436316E-15
      1.25538557939359E-01
     -6.86153605151602E-01  -6.86153605151602E-01   0.00000000000000E+00   0.00000000000000E+00   3.88825324343480E-36
     -3.88825324343480E-36   0.00000000000000E+00  -5.11826941395278E-16   0.00000000000000E+00   0.00000000000000E+00
      0.00000000000000E+00   0.00000000000000E+00   4.69883770090422E-22  -1.76294918374328E-14  -1.76294913675490E-14
     -6.78336767603692E-15   1.00000000000000E+00   1.00000000000000E+00   0.00000000000000E+00   0.00000000000000E+00
      1.76295413793406E-14   8.22640296872668E-21   1.76295496057435E-14   4.53310589258112E-15   0.00000000000000E+00
      0.00000000000000E+00   0.00000000000000E+00   0.00000000000000E+00  -5.82384526792072E-20   2.58164433463949E-25
     -5.82381945147737E-20   2.76208872485109E-15
      1.57717140942951E-01
     -6.05707147642621E-01  -6.05707147642621E-01   0.00000000000000E+00   0.00000000000000E+00   3.96834056977242E-36
     -3.96834056977242E-36   0.00000000000000E+00  -4.52595397545609E-16   0.00000000000000E+00   0.00000000000000E+00
      0.00000000000000E+00   0.00000000000000E+00   6.71405818676950E-22  -1.76163879265999E-14  -1.76163872551941E-14
     -6.79963382885659E-15   1.00000000000000E+00   1.00000000000000E+00   0.00000000000000E+00   0.00000000000000E+00
      1.76164599564687E-14   8.22643576198806E-21   1.76164681829044E-14   4.51184929788079E-15   0.00000000000000E+00
      0.00000000000000E+00   0.00000000000000E+00   0.00000000000000E+00  -8.09274473487042E-20  -2.62995897442373E-25
     -8.09277103446016E-20   2.74037992852141E-15
      1.98262155527478E-01
     -5.04344611181305E-01  -5.04344611181305E-01   0.00000000000000E+00   0.00000000000000E+00   3.97543597529572E-36
     -3.97543597529572E-36   0.00000000000000E+00  -3.78364283973084E-16   0.00000000000000E+00   0.00000000000000E+00
      0.00000000000000E+00   0.00000000000000E+00   8.32604287510567E-22  -1.76055744928246E-14  -1.76055736602203E-14
     -6.81944431484772E-15   1.00000000000000E+00   1.00000000000000E+00   0.00000000000000E+00   0.00000000000000E+00
      1.76057072883338E-14   8.22647717498605E-21   1.76057155148110E-14   4.48492600014769E-15   0.00000000000000E+00
      0.00000000000000E+00   0.00000000000000E+00   0.00000000000000E+00  -1.41854578566854E-19  -1.21016948722098E-26
     -1.41854590668549E-19   2.71288259867311E-15
      2.00000000000000E-01
     -5.00000000000000E-01  -5.00000000000000E-01   0.00000000000000E+00   0.00000000000000E+00   3.87395517168092E-36
     -3.87395517168092E-36   0.00000000000000E+00  -3.75191899913716E-16   0.00000000000000E+00   0.00000000000000E+00
      0.00000000000000E+00   0.00000000000000E+00   2.14432563213044E-22  -1.76052549957451E-14  -1.76052547813125E-14
     -6.82027719045361E-15   1.00000000000000E+00   1.00000000000000E+00   0.00000000000000E+00   0.00000000000000E+00
      1.76053918437110E-14   8.22647895210433E-21   1.76054000701900E-14   4.48376859083034E-15   0.00000000000000E+00
      0.00000000000000E+00   0.00000000000000E+00   0.00000000000000E+00  -1.45288447724273E-19  -4.29663029639263E-25
     -1.45288877387303E-19   2.71170049953698E-15
      2.51086718376503E-01
     -3.72283204058742E-01  -3.72283204058742E-01   0.00000000000000E+00   0.00000000000000E+00   3.92767490424493E-36
     -3.92767490424493E-36   0.00000000000000E+00  -2.82249892447360E-16   0.00000000000000E+00   0.00000000000000E+00
      0.00000000000000E+00   0.00000000000000E+00  -7.89621679021361E-22  -1.76015238410662E-14  -1.76015246306878E-14
     -6.84419797193396E-15   1.00000000000000E+00   1.00000000000000E+00   0.00000000000000E+00   0.00000000000000E+00
      1.76018914798927E-14   8.22653127850126E-21   1.76018997064240E-14   4.44962246719036E-15   0.00000000000000E+00
      0.00000000000000E+00   0.00000000000000E+00   0.00000000000000E+00  -3.75075734805942E-19  -1.29720302188587E-27
     -3.75075736103145E-19   2.67682539719096E-15
      3.00000000000000E-01
     -2.50000000000000E-01  -2.50000000000000E-01   0.00000000000000E+00   0.00000000000000E+00   3.92707729130659E-36
     -3.92707729130659E-36   0.00000000000000E+00  -1.93789671866111E-16   0.00000000000000E+00   0.00000000000000E+00
      0.00000000000000E+00   0.00000000000000E+00  -1.41337610627334E-21  -1.76072015145701E-14  -1.76072029279462E-14
     -6.86613668303778E-15   1.00000000000000E+00   1.00000000000000E+00   0.00000000000000E+00   0.00000000000000E+00
      1.76083285865483E-14   8.22658152285156E-21   1.76083368131298E-14   4.41671471609960E-15   0.00000000000000E+00
      0.00000000000000E+00   0.00000000000000E+00   0.00000000000000E+00  -1.13388513786237E-18  -4.57457418862976E-26
     -1.13388518360811E-18   2.64321163880429E-15
      3.32184632577197E-01
     -1.69538418557007E-01  -1.69538418557007E-01   0.00000000000000E+00   0.00000000000000E+00   3.93529654489403E-36
     -3.93529654489403E-36   0.00000000000000E+00  -1.35839402727445E-16   0.00000000000000E+00   0.00000000000000E+00
      0.00000000000000E+00   0.00000000000000E+00  -9.13848349727789E-22  -1.76144461304600E-14  -1.76144470443084E-14
     -6.88009137779487E-15   1.00000000000000E+00   1.00000000000000E+00   0.00000000000000E+00   0.00000000000000E+00
      1.76169773666395E-14   8.22661466283743E-21   1.76169855932542E-14   4.39495268224337E-15   0.00000000000000E+00
      0.00000000000000E+00   0.00000000000000E+00   0.00000000000000E+00  -2.53854863810300E-18  -3.07620728483039E-25
     -2.53854894572372E-18   2.62097809827895E-15
      3.72737269624465E-01
     -6.81568259388365E-02  -6.81568259388365E-02   0.00000000000000E+00   0.00000000000000E+00   3.97967759856644E-36
     -3.97967759856644E-36   0.00000000000000E+00  -6.30881052987466E-17   0.00000000000000E+00   0.00000000000000E+00
      0.00000000000000E+00   0.00000000000000E+00   3.05229476160725E-22  -1.76268412791768E-14  -1.76268409739474E-14
     -6.89716379404194E-15   1.00000000000000E+00   1.00000000000000E+00   0.00000000000000E+00   0.00000000000000E+00
      1.76343183006461E-14   8.22665645321859E-21   1.76343265273025E-14   4.36741591293898E-15   0.00000000000000E+00
      0.00000000000000E+00   0.00000000000000E+00   0.00000000000000E+00  -7.48555343206394E-18   7.68892647207968E-26
     -7.48555335517468E-18   2.59283598640171E-15
      4.00000000000000E-01
      0.00000000000000E+00   0.00000000000000E+00   0.00000000000000E+00   0.00000000000000E+00   4.01491889998535E-36
     -4.01491889998535E-36   0.00000000000000E+00  -1.43335023861560E-17   0.00000000000000E+00   0.00000000000000E+00
      0.00000000000000E+00   0.00000000000000E+00  -2.50900872261857E-21  -1.76370295650115E-14  -1.76370320740202E-14
     -6.90833951006119E-15   1.00000000000000E+00   1.00000000000000E+00   0.00000000000000E+00   0.00000000000000E+00
      1.76530506432890E-14   8.22668454554131E-21   1.76530588699735E-14   4.34883421841887E-15   0.00000000000000E+00
      0.00000000000000E+00   0.00000000000000E+00   0.00000000000000E+00  -1.60267961193966E-17   1.66048639835477E-25
     -1.60267959533480E-17   2.57383879402846E-15
      4.50285269938613E-01
      1.25713174846532E-01   1.25713174846532E-01   0.00000000000000E+00   0.00000000000000E+00   4.02438070535114E-36
     -4.02438070535114E-36   0.00000000000000E+00   7.52985362135904E-17   0.00000000000000E+00   0.00000000000000E+00
      0.00000000000000E+00   0.00000000000000E+00  -4.67753229740448E-21  -1.76606300267354E-14  -1.76606347042677E-14
     -6.92836716379496E-15   1.00000000000000E+00   1.00000000000000E+00   0.00000000000000E+00   0.00000000000000E+00
      1.77299304439056E-14   8.22673648207169E-21   1.77299386706420E-14   4.31442524595209E-15   0.00000000000000E+00
      0.00000000000000E+00   0.00000000000000E+00   0.00000000000000E+00  -6.93039667368335E-17   3.62406811613339E-25
     -6.93039663744267E-17   2.53864338162929E-15
      5.00000000000000E-01
      2.50000000000000E-01   2.50000000000000E-01   0.00000000000000E+00   0.00000000000000E+00   3.83653993972152E-36
     -3.83653993972152E-36   0.00000000000000E+00   1.63580925466483E-16   0.00000000000000E+00   0.00000000000000E+00
      0.00000000000000E+00   0.00000000000000E+00  -3.00029705873374E-21  -1.76922286218641E-14  -1.76922316221611E-14
     -6.94749355528619E-15   1.00000000000000E+00   1.00000000000000E+00   0.00000000000000E+00   0.00000000000000E+00
      1.80057040483111E-14   8.22678797777111E-21   1.80057122750991E-14   4.28024870110020E-15   0.00000000000000E+00
      0.00000000000000E+00   0.00000000000000E+00   0.00000000000000E+00  -3.13480652978843E-16   4.09425440700425E-26
     -3.13480652937901E-16   2.50366392871950E-15
      5.63359440122652E-01
      4.08398600306630E-01   4.08398600306630E-01   0.00000000000000E+00   0.00000000000000E+00   3.92044616951639E-36
     -3.92044616951639E-36   0.00000000000000E+00   2.75675563470980E-16   0.00000000000000E+00   0.00000000000000E+00
      0.00000000000000E+00   0.00000000000000E+00  -9.31028254072597E-22  -1.77420248459806E-14  -1.77420257770088E-14
     -6.97101635429625E-15   1.00000000000000E+00   1.00000000000000E+00   0.00000000000000E+00   0.00000000000000E+00
      2.00415181358568E-14   8.22685379577761E-21   2.00415263627106E-14   4.23648982619809E-15   0.00000000000000E+00
      0.00000000000000E+00   0.00000000000000E+00   0.00000000000000E+00  -2.29950058585609E-15   1.54370680835064E-25
     -2.29950058570172E-15   2.45885096462718E-15
      6.00000000000000E-01
      5.00000000000000E-01   5.00000000000000E-01   0.00000000000000E+00   0.00000000000000E+00   3.98354035390915E-36
     -3.98354035390915E-36   0.00000000000000E+00   3.40303203952807E-16   0.00000000000000E+00   0.00000000000000E+00
      0.00000000000000E+00   0.00000000000000E+00  -1.71786581999003E-20  -1.77685858352637E-14  -1.77686030139219E-14
     -6.98422557846844E-15   1.00000000000000E+00   1.00000000000000E+00   0.00000000000000E+00   0.00000000000000E+00
      2.52613927310496E-14   8.22689191478833E-21   2.52614009579415E-14   4.21109081413406E-15   0.00000000000000E+00
      0.00000000000000E+00   0.00000000000000E+00   0.00000000000000E+00  -7.49279794435430E-15   3.34812141314439E-25
     -7.49279794401949E-15   2.43283156038155E-15
      6.78565705752089E-01
      6.96414264380221E-01   6.96414264380221E-01   0.00000000000000E+00   0.00000000000000E+00   3.89740076531408E-36
     -3.89740076531408E-36   0.00000000000000E+00   4.78418441168667E-16   0.00000000000000E+00   0.00000000000000E+00
      0.00000000000000E+00   0.00000000000000E+00   1.66405062284201E-20  -1.77922380394716E-14  -1.77922213989654E-14
     -7.01167195156139E-15   1.00000000000000E+00   1.00000000000000E+00   0.00000000000000E+00   0.00000000000000E+00
      1.17762843981403E-13   8.22697389517511E-21   1.17762852208377E-13   4.15642289828284E-15   0.00000000000000E+00
      0.00000000000000E+00   0.00000000000000E+00   0.00000000000000E+00  -9.99706308095020E-14   9.09715692751966E-26
     -9.99706308094110E-14   2.37683061210985E-15
      7.00000000000000E-01
      7.50000000000000E-01   7.50000000000000E-01   0.00000000000000E+00   0.00000000000000E+00   6.09580747041047E-36
     -6.09580747041047E-36   0.00000000000000E+00   5.15992968666196E-16   0.00000000000000E+00   0.00000000000000E+00
      0.00000000000000E+00   0.00000000000000E+00   1.75462716973560E-20  -1.77916210860476E-14  -1.77916035397759E-14
     -7.01896965385012E-15   1.00000000000000E+00   1.00000000000000E+00   0.00000000000000E+00   0.00000000000000E+00
      2.22973937154124E-13   8.22699631157915E-21   2.22973945381120E-13   4.14146334315358E-15   0.00000000000000E+00
      0.00000000000000E+00   0.00000000000000E+00   0.00000000000000E+00  -2.05182341841581E-13   2.36967541398918E-25
     -2.05182341841344E-13   2.36151334203036E-15
      7.95850161017548E-01
      9.89625402543870E-01   9.89625402543870E-01   0.00000000000000E+00   0.00000000000000E+00   3.95483807157432E-36
     -3.95483807157432E-36   0.00000000000000E+00   6.83496882663890E-16   0.00000000000000E+00   0.00000000000000E+00
      0.00000000000000E+00   0.00000000000000E+00   8.75965161371541E-20  -1.77810287995633E-14  -1.77809412030472E-14
     -7.05077608838542E-15   1.00000000000000E+00   1.00000000000000E+00   0.00000000000000E+00   0.00000000000000E+00
      5.39557371757385E-12   8.22709676803124E-21   5.39557372580094E-12   4.07435788545071E-15   0.00000000000000E+00
      0.00000000000000E+00   0.00000000000000E+00   0.00000000000000E+00  -5.37779278459788E-12  -1.72600155061223E-26
     -5.37779278459790E-12   2.29292132027082E-15
      8.00000000000000E-01
      1.00000000000000E+00   1.00000000000000E+00   0.00000000000000E+00   0.00000000000000E+00  -1.73733701123740E-35
      1.73733701123740E-35   0.00000000000000E+00   6.90730726773310E-16   0.00000000000000E+00   0.00000000000000E+00
      0.00000000000000E+00   0.00000000000000E+00   4.66247667576939E-16  -1.77802389332856E-14  -1.73139912657086E-14
     -7.05212750130100E-15   1.00000000000000E+00   1.00000000000000E+00   0.00000000000000E+00   0.00000000000000E+00
      6.22192637664743E-12   8.22710112461474E-21   6.22192638487453E-12   4.07144539557440E-15   0.00000000000000E+00
      0.00000000000000E+00   0.00000000000000E+00   0.00000000000000E+00  -6.20461239360886E-12   3.38101514565856E-26
     -6.20461239360883E-12   2.28995137895328E-15
      9.00000000000000E-01
      1.25000000000000E+00   1.25000000000000E+00   0.00000000000000E+00   0.00000000000000E+00   4.14004858164474E-36
     -4.14004858164474E-36   0.00000000000000E+00   8.64639377841775E-16   0.00000000000000E+00   0.00000000000000E+00
      0.00000000000000E+00   0.00000000000000E+00   1.79070138045036E-20  -1.77575913333907E-14  -1.77575734263769E-14
     -7.08430427729956E-15   1.00000000000000E+00   1.00000000000000E+00   0.00000000000000E+00   0.00000000000000E+00
      1.99030186825252E-10   8.22720649329682E-21   1.99030186833479E-10   4.00110055173440E-15   0.00000000000000E+00
      0.00000000000000E+00   0.00000000000000E+00   0.00000000000000E+00  -1.99012429260053E-10   1.30500227965804E-25
     -1.99012429260053E-10   2.21856434772340E-15
      1.00000000000000E+00
      1.50000000000000E+00   1.50000000000000E+00   0.00000000000000E+00   0.00000000000000E+00   4.43986737471650E-36
     -4.43986737471650E-36   0.00000000000000E+00   1.03789748039466E-15   0.00000000000000E+00   0.00000000000000E+00
      0.00000000000000E+00   0.00000000000000E+00  -1.09295936037608E-19  -1.77266470012958E-14  -1.77267562972319E-14
     -7.11641571460964E-15   1.00000000000000E+00   1.00000000000000E+00   0.00000000000000E+00   0.00000000000000E+00
      6.46567990757182E-09   8.22731338108732E-21   6.46567990758005E-09   3.93046080346540E-15   0.00000000000000E+00
      0.00000000000000E+00   0.00000000000000E+00   0.00000000000000E+00  -6.46566218082378E-09  -3.42863938360558E-26
     -6.46566218082378E-09   2.14805743074957E-15
}
