DF-ISE text

Info {
  version   = 1.0
  type      = xyplot
  datasets  = [
    "time"
    "gate OuterVoltage" "gate InnerVoltage" "gate QuasiFermiPotential" "gate DisplacementCurrent" "gate eCurrent"
    "gate hCurrent" "gate TotalCurrent" "gate Charge" "substrate OuterVoltage" "substrate InnerVoltage"
    "substrate QuasiFermiPotential" "substrate DisplacementCurrent" "substrate eCurrent" "substrate hCurrent" "substrate TotalCurrent"
    "substrate Charge" "drain OuterVoltage" "drain InnerVoltage" "drain QuasiFermiPotential" "drain DisplacementCurrent"
    "drain eCurrent" "drain hCurrent" "drain TotalCurrent" "drain Charge" "source OuterVoltage"
    "source InnerVoltage" "source QuasiFermiPotential" "source DisplacementCurrent" "source eCurrent" "source hCurrent"
    "source TotalCurrent" "source Charge" ]
  functions = [
    Time
    OuterVoltage InnerVoltage QuasiFermiPotential DisplacementCurrent eCurrent
    hCurrent TotalCurrent Charge OuterVoltage InnerVoltage
    QuasiFermiPotential DisplacementCurrent eCurrent hCurrent TotalCurrent
    Charge OuterVoltage InnerVoltage QuasiFermiPotential DisplacementCurrent
    eCurrent hCurrent TotalCurrent Charge OuterVoltage
    InnerVoltage QuasiFermiPotential DisplacementCurrent eCurrent hCurrent
    TotalCurrent Charge ]
}

Data {
      0.00000000000000E+00
      1.00000000000000E+00   1.00000000000000E+00   0.00000000000000E+00   0.00000000000000E+00   5.05721749516005E-36
     -5.05721749516005E-36   0.00000000000000E+00   6.72437213210644E-16   0.00000000000000E+00   0.00000000000000E+00
      0.00000000000000E+00   0.00000000000000E+00   7.80679104265808E-15  -1.16321928976718E-20   7.80677941046518E-15
      2.18990150346273E-15  -1.00000000000000E+00  -1.00000000000000E+00   0.00000000000000E+00   0.00000000000000E+00
     -1.48022598207877E-21  -7.80686913444618E-15  -7.80687061467217E-15  -1.78568859526699E-15   0.00000000000000E+00
      0.00000000000000E+00   0.00000000000000E+00   0.00000000000000E+00  -3.10663659797479E-29   9.12042069956642E-20
      9.12042069645978E-20  -1.07665012140638E-15
      1.00000000000000E-03
      9.97500000000000E-01   9.97500000000000E-01   0.00000000000000E+00   0.00000000000000E+00   5.09301815064387E-36
     -5.09301815064387E-36   0.00000000000000E+00   6.69297917924778E-16   0.00000000000000E+00   0.00000000000000E+00
      0.00000000000000E+00   0.00000000000000E+00   7.80341755907627E-15   8.02839142531105E-20   7.80349784299052E-15
      2.19179758324050E-15  -1.00000000000000E+00  -1.00000000000000E+00   0.00000000000000E+00   0.00000000000000E+00
     -1.48103979917254E-21  -7.80354334921314E-15  -7.80354483025294E-15  -1.78506231411864E-15   0.00000000000000E+00
      0.00000000000000E+00   0.00000000000000E+00   0.00000000000000E+00  -9.79789971135439E-29   4.69872625318910E-20
      4.69872624339120E-20  -1.07603318704663E-15
      2.28000000000000E-03
      9.94300000000000E-01   9.94300000000000E-01   0.00000000000000E+00   0.00000000000000E+00   5.13284163338732E-36
     -5.13284163338732E-36   0.00000000000000E+00   6.65285388624618E-16   0.00000000000000E+00   0.00000000000000E+00
      0.00000000000000E+00   0.00000000000000E+00   7.79911340880825E-15   1.47383802459817E-20   7.79912814718850E-15
      2.19421823489238E-15  -1.00000000000000E+00  -1.00000000000000E+00   0.00000000000000E+00   0.00000000000000E+00
     -1.48077252134444E-21  -7.79922264563573E-15  -7.79922412640825E-15  -1.78426041367603E-15   0.00000000000000E+00
      0.00000000000000E+00   0.00000000000000E+00   0.00000000000000E+00  -2.63049884043396E-28   9.59792200224236E-20
      9.59792197593737E-20  -1.07524320984098E-15
      3.91840000000000E-03
      9.90204000000000E-01   9.90204000000000E-01   0.00000000000000E+00   0.00000000000000E+00   5.13206158713565E-36
     -5.13206158713565E-36   0.00000000000000E+00   6.60158814464583E-16   0.00000000000000E+00   0.00000000000000E+00
      0.00000000000000E+00   0.00000000000000E+00   7.79362551537379E-15   1.10872152091059E-20   7.79363660258900E-15
      2.19730628689094E-15  -1.00000000000000E+00  -1.00000000000000E+00   0.00000000000000E+00   0.00000000000000E+00
     -1.72820869277447E-21  -7.79371987442372E-15  -7.79372160263241E-15  -1.78323355493292E-15   0.00000000000000E+00
      0.00000000000000E+00   0.00000000000000E+00   0.00000000000000E+00  -2.36173352144288E-28   8.50000436428814E-20
      8.50000434067080E-20  -1.07423154642261E-15
      6.01555200000000E-03
      9.84961120000000E-01   9.84961120000000E-01   0.00000000000000E+00   0.00000000000000E+00   5.12461920626227E-36
     -5.12461920626227E-36   0.00000000000000E+00   6.53612326738303E-16   0.00000000000000E+00   0.00000000000000E+00
      0.00000000000000E+00   0.00000000000000E+00   7.78663410834178E-15   6.36498766023899E-20   7.78669775821838E-15
      2.20124196453642E-15  -1.00000000000000E+00  -1.00000000000000E+00   0.00000000000000E+00   0.00000000000000E+00
     -1.71941785862070E-21  -7.78674166416793E-15  -7.78674338358579E-15  -1.78191847909056E-15   0.00000000000000E+00
      0.00000000000000E+00   0.00000000000000E+00   0.00000000000000E+00  -3.74795127140057E-28   4.56253677794105E-20
      4.56253674046154E-20  -1.07293581218416E-15
      8.69990656000000E-03
      9.78250233600000E-01   9.78250233600000E-01   0.00000000000000E+00   0.00000000000000E+00   5.13475215813187E-36
     -5.13475215813187E-36   0.00000000000000E+00   6.45258302119102E-16   0.00000000000000E+00   0.00000000000000E+00
      0.00000000000000E+00   0.00000000000000E+00   7.77773435658758E-15   2.74316704138618E-20   7.77776178825799E-15
      2.20625169961619E-15  -1.00000000000000E+00  -1.00000000000000E+00   0.00000000000000E+00   0.00000000000000E+00
     -1.48071956224967E-21  -7.77783485056704E-15  -7.77783633128660E-15  -1.78023404405355E-15   0.00000000000000E+00
      0.00000000000000E+00   0.00000000000000E+00   0.00000000000000E+00   1.00349479391791E-27   7.45430276211312E-20
      7.45430286246260E-20  -1.07127595768175E-15
      1.21358803968000E-02
      9.69660299008000E-01   9.69660299008000E-01   0.00000000000000E+00   0.00000000000000E+00   5.14795666715031E-36
     -5.14795666715031E-36   0.00000000000000E+00   6.34606960521035E-16   0.00000000000000E+00   0.00000000000000E+00
      0.00000000000000E+00   0.00000000000000E+00   7.76641450205293E-15   2.99054162641362E-20   7.76644440746920E-15
      2.21261834908562E-15  -1.00000000000000E+00  -1.00000000000000E+00   0.00000000000000E+00   0.00000000000000E+00
     -1.48101026425239E-21  -7.76653632172626E-15  -7.76653780273653E-15  -1.77807611020547E-15   0.00000000000000E+00
      0.00000000000000E+00   0.00000000000000E+00   0.00000000000000E+00   1.87240689141334E-28   9.33952671237678E-20
      9.33952673110085E-20  -1.06914919940119E-15
      1.65339269079040E-02
      9.58665182730240E-01   9.58665182730240E-01   0.00000000000000E+00   0.00000000000000E+00   5.18753248352461E-36
     -5.18753248352461E-36   0.00000000000000E+00   6.21041824927295E-16   0.00000000000000E+00   0.00000000000000E+00
      0.00000000000000E+00   0.00000000000000E+00   7.75202597704053E-15  -1.08466724630588E-20   7.75201513036807E-15
      2.22069255959690E-15  -1.00000000000000E+00  -1.00000000000000E+00   0.00000000000000E+00   0.00000000000000E+00
     -1.75859185572804E-21  -7.75211600990267E-15  -7.75211776849453E-15  -1.77531092855420E-15   0.00000000000000E+00
      0.00000000000000E+00   0.00000000000000E+00   0.00000000000000E+00   1.62103835694838E-28   1.02638126298734E-19
      1.02638126460837E-19  -1.06642345597001E-15
      2.21634264421171E-02
      9.44591433894707E-01   9.44591433894707E-01   0.00000000000000E+00   0.00000000000000E+00   5.06972359226718E-36
     -5.06972359226718E-36   0.00000000000000E+00   6.03790835729922E-16   0.00000000000000E+00   0.00000000000000E+00
      0.00000000000000E+00   0.00000000000000E+00   7.73374411125958E-15  -9.51039481606278E-20   7.73364900731142E-15
      2.23090456512818E-15  -1.00000000000000E+00  -1.00000000000000E+00   0.00000000000000E+00   0.00000000000000E+00
     -1.78339831236899E-21  -7.73381184903221E-15  -7.73381363243053E-15  -1.77176657321001E-15   0.00000000000000E+00
      0.00000000000000E+00   0.00000000000000E+00   0.00000000000000E+00  -7.90171722802590E-29   1.64625119185194E-19
      1.64625119106177E-19  -1.06292882764810E-15
      2.93691858459099E-02
      9.26577035385225E-01   9.26577035385225E-01   0.00000000000000E+00   0.00000000000000E+00   5.01098766026084E-36
     -5.01098766026084E-36   0.00000000000000E+00   5.81893336781471E-16   0.00000000000000E+00   0.00000000000000E+00
      0.00000000000000E+00   0.00000000000000E+00   7.71050336137841E-15  -1.40901969268412E-19   7.71036245940915E-15
      2.24377497962621E-15  -1.00000000000000E+00  -1.00000000000000E+00   0.00000000000000E+00   0.00000000000000E+00
     -1.48098975336689E-21  -7.71058176023487E-15  -7.71058324122463E-15  -1.76722181124689E-15   0.00000000000000E+00
      0.00000000000000E+00   0.00000000000000E+00   0.00000000000000E+00  -5.12137771865250E-28   2.20781815998991E-19
      2.20781815486853E-19  -1.05844650516080E-15
      3.85925578827647E-02
      9.03518605293088E-01   9.03518605293088E-01   0.00000000000000E+00   0.00000000000000E+00   5.14916671257400E-36
     -5.14916671257400E-36   0.00000000000000E+00   5.54163761091944E-16   0.00000000000000E+00   0.00000000000000E+00
      0.00000000000000E+00   0.00000000000000E+00   7.68094553724736E-15  -1.20681364691374E-18   7.67973872360044E-15
      2.25992213562461E-15  -1.00000000000000E+00  -1.00000000000000E+00   0.00000000000000E+00   0.00000000000000E+00
     -1.48101461396802E-21  -7.68098378443741E-15  -7.68098526545202E-15  -1.76139160425665E-15   0.00000000000000E+00
      0.00000000000000E+00   0.00000000000000E+00   0.00000000000000E+00  -1.32043099427616E-27   1.24654185292606E-18
      1.24654185160563E-18  -1.05269429245990E-15
      5.03984740899388E-02
      8.74003814775153E-01   8.74003814775153E-01   0.00000000000000E+00   0.00000000000000E+00   5.02492443616281E-36
     -5.02492443616281E-36   0.00000000000000E+00   5.19153337365584E-16   0.00000000000000E+00   0.00000000000000E+00
      0.00000000000000E+00   0.00000000000000E+00   7.64337485748915E-15  -1.19859982590864E-20   7.64336287149089E-15
      2.28006250326166E-15  -1.00000000000000E+00  -1.00000000000000E+00   0.00000000000000E+00   0.00000000000000E+00
     -1.45370220535187E-21  -7.64345891186703E-15  -7.64346036556924E-15  -1.75390817408879E-15   0.00000000000000E+00
      0.00000000000000E+00   0.00000000000000E+00   0.00000000000000E+00   2.28649441379408E-28   9.74940781054918E-20
      9.74940783341412E-20  -1.04530766653845E-15
      6.52739285109782E-02
      8.36815178722555E-01   8.36815178722555E-01   0.00000000000000E+00   0.00000000000000E+00   5.00461176021445E-36
     -5.00461176021445E-36   0.00000000000000E+00   4.75792114870388E-16   0.00000000000000E+00   0.00000000000000E+00
      0.00000000000000E+00   0.00000000000000E+00   7.59638010292461E-15   4.44845720290394E-20   7.59642458749664E-15
      2.30461819536073E-15  -1.00000000000000E+00  -1.00000000000000E+00   0.00000000000000E+00   0.00000000000000E+00
     -1.47221330185180E-21  -7.59652300620862E-15  -7.59652447842192E-15  -1.74444669632955E-15   0.00000000000000E+00
      0.00000000000000E+00   0.00000000000000E+00   0.00000000000000E+00  -4.12019203187383E-28   9.98909256970236E-20
      9.98909252850044E-20  -1.03596361390157E-15
      8.37194919930670E-02
      7.90701270017332E-01   7.90701270017332E-01   0.00000000000000E+00   0.00000000000000E+00   4.99325082874022E-36
     -4.99325082874022E-36   0.00000000000000E+00   4.23132987409383E-16   0.00000000000000E+00   0.00000000000000E+00
      0.00000000000000E+00   0.00000000000000E+00   7.53873952611806E-15   3.49540932577359E-20   7.53877448021132E-15
      2.33385526089809E-15  -1.00000000000000E+00  -1.00000000000000E+00   0.00000000000000E+00   0.00000000000000E+00
     -1.68309397400350E-21  -7.53884232675191E-15  -7.53884400984589E-15  -1.73266607675712E-15   0.00000000000000E+00
      0.00000000000000E+00   0.00000000000000E+00   0.00000000000000E+00  -3.40546943936252E-28   6.95296348910895E-20
      6.95296345505425E-20  -1.02432217155034E-15
      1.00000000000000E-01
      7.50000000000000E-01   7.50000000000000E-01   0.00000000000000E+00   0.00000000000000E+00   4.99318701338146E-36
     -4.99318701338146E-36   0.00000000000000E+00   3.77605932759198E-16   0.00000000000000E+00   0.00000000000000E+00
      0.00000000000000E+00   0.00000000000000E+00   7.48853877309163E-15  -3.20134007542551E-21   7.48853557175156E-15
      2.35861868995460E-15  -1.00000000000000E+00  -1.00000000000000E+00   0.00000000000000E+00   0.00000000000000E+00
     -1.48084523464131E-21  -7.48862221373720E-15  -7.48862369458244E-15  -1.72222548297360E-15   0.00000000000000E+00
      0.00000000000000E+00   0.00000000000000E+00   0.00000000000000E+00   1.98788994153797E-28   8.81228306845521E-20
      8.81228308833410E-20  -1.01399913974020E-15
      1.22872498717790E-01
      6.92818753205525E-01   6.92818753205525E-01   0.00000000000000E+00   0.00000000000000E+00   5.06465219893243E-36
     -5.06465219893243E-36   0.00000000000000E+00   3.15011052796933E-16   0.00000000000000E+00   0.00000000000000E+00
      0.00000000000000E+00   0.00000000000000E+00   7.41895219684731E-15   3.52549864481109E-20   7.41898745183376E-15
      2.39190661979765E-15  -1.00000000000000E+00  -1.00000000000000E+00   0.00000000000000E+00   0.00000000000000E+00
     -1.48106336252372E-21  -7.41910890986745E-15  -7.41911039093082E-15  -1.70749304705548E-15   0.00000000000000E+00
      0.00000000000000E+00   0.00000000000000E+00   0.00000000000000E+00   3.18094969351362E-28   1.22939096736557E-19
      1.22939097054652E-19  -9.99424625539096E-16
      1.51691847102206E-01
      6.20770382244486E-01   6.20770382244486E-01   0.00000000000000E+00   0.00000000000000E+00   5.12550084063459E-36
     -5.12550084063459E-36   0.00000000000000E+00   2.38137717817410E-16   0.00000000000000E+00   0.00000000000000E+00
      0.00000000000000E+00   0.00000000000000E+00   7.33213107534859E-15  -6.43447703402274E-20   7.33206673057825E-15
      2.43164081763350E-15  -1.00000000000000E+00  -1.00000000000000E+00   0.00000000000000E+00   0.00000000000000E+00
     -1.48108651046408E-21  -7.33235698270176E-15  -7.33235846378827E-15  -1.68882904755199E-15   0.00000000000000E+00
      0.00000000000000E+00   0.00000000000000E+00   0.00000000000000E+00   1.59360759503305E-28   2.91733209870410E-19
      2.91733210029770E-19  -9.80949487898916E-16
      1.88004226066569E-01
      5.29989434833576E-01   5.29989434833576E-01   0.00000000000000E+00   0.00000000000000E+00   5.03843161128665E-36
     -5.03843161128665E-36   0.00000000000000E+00   1.43939676147490E-16   0.00000000000000E+00   0.00000000000000E+00
      0.00000000000000E+00   0.00000000000000E+00   7.22355749913963E-15  -3.12595171782394E-20   7.22352623962246E-15
      2.47873211616263E-15  -1.00000000000000E+00  -1.00000000000000E+00   0.00000000000000E+00   0.00000000000000E+00
     -1.48109600337183E-21  -7.22431059947196E-15  -7.22431208056797E-15  -1.66516318284154E-15   0.00000000000000E+00
      0.00000000000000E+00   0.00000000000000E+00   0.00000000000000E+00   4.31215489565565E-28   7.85840945079659E-19
      7.85840945510874E-19  -9.57508609468572E-16
      2.00000000000000E-01
      5.00000000000000E-01   5.00000000000000E-01   0.00000000000000E+00   0.00000000000000E+00   5.02789575077599E-36
     -5.02789575077599E-36   0.00000000000000E+00   1.13382230318936E-16   0.00000000000000E+00   0.00000000000000E+00
      0.00000000000000E+00   0.00000000000000E+00   7.18837022071085E-15  -2.45447903814939E-21   7.18836776623181E-15
      2.49365643947800E-15  -1.00000000000000E+00  -1.00000000000000E+00   0.00000000000000E+00   0.00000000000000E+00
     -1.48109912882658E-21  -7.18960321983076E-15  -7.18960470092989E-15  -1.65731080054100E-15   0.00000000000000E+00
      0.00000000000000E+00   0.00000000000000E+00   0.00000000000000E+00  -2.23340535440000E-28   1.23693469832678E-18
      1.23693469810344E-18  -9.49727869255945E-16
      2.45027349915811E-01
      3.87431625210473E-01   3.87431625210473E-01   0.00000000000000E+00   0.00000000000000E+00   4.99120941893802E-36
     -4.99120941893802E-36   0.00000000000000E+00   7.82278596233052E-19   0.00000000000000E+00   0.00000000000000E+00
      0.00000000000000E+00   0.00000000000000E+00   7.06182166031159E-15  -4.63447238094089E-20   7.06177531558778E-15
      2.54728197636639E-15  -1.00000000000000E+00  -1.00000000000000E+00   0.00000000000000E+00   0.00000000000000E+00
     -1.48111079686092E-21  -7.06999897448205E-15  -7.07000045559284E-15  -1.62769404842454E-15   0.00000000000000E+00
      0.00000000000000E+00   0.00000000000000E+00   0.00000000000000E+00   3.05725569869878E-28   8.22514000476596E-18
      8.22514000507168E-18  -9.20370206538072E-16
      2.99960716813100E-01
      2.50098207967249E-01   2.50098207967249E-01   0.00000000000000E+00   0.00000000000000E+00   4.99986902044325E-36
     -4.99986902044325E-36   0.00000000000000E+00  -1.32839730414842E-16   0.00000000000000E+00   0.00000000000000E+00
      0.00000000000000E+00   0.00000000000000E+00   6.92327242702927E-15   2.09656990116966E-20   6.92329339272828E-15
      2.60837795673904E-15  -1.00000000000000E+00  -1.00000000000000E+00   0.00000000000000E+00   0.00000000000000E+00
     -1.48112487584012E-21  -7.03594786590771E-15  -7.03594934703259E-15  -1.59128055413479E-15   0.00000000000000E+00
      0.00000000000000E+00   0.00000000000000E+00   0.00000000000000E+00  -3.99192336768312E-28   1.12655954304684E-16
      1.12655954304285E-16  -8.84257672189403E-16
      3.00000000000000E-01
      2.50000000000000E-01   2.50000000000000E-01   0.00000000000000E+00   0.00000000000000E+00   5.01456513869748E-36
     -5.01456513869748E-36   0.00000000000000E+00  -1.32934022381311E-16   0.00000000000000E+00   0.00000000000000E+00
      0.00000000000000E+00   0.00000000000000E+00   6.92317903952883E-15   3.82700489642516E-20   6.92321730957779E-15
      2.60842017511336E-15  -1.00000000000000E+00  -1.00000000000000E+00   0.00000000000000E+00   0.00000000000000E+00
     -1.48112488540274E-21  -7.03612893620780E-15  -7.03613041733268E-15  -1.59125441125496E-15   0.00000000000000E+00
      0.00000000000000E+00   0.00000000000000E+00   0.00000000000000E+00  -1.46760216005035E-28   1.12913107755044E-16
      1.12913107754897E-16  -8.84231741477098E-16
      3.54933366897289E-01
      1.12666582756777E-01   1.12666582756777E-01   0.00000000000000E+00   0.00000000000000E+00   5.01475500001197E-36
     -5.01475500001197E-36   0.00000000000000E+00  -2.63276919187723E-16   0.00000000000000E+00   0.00000000000000E+00
      0.00000000000000E+00   0.00000000000000E+00   6.80081596475422E-15  -1.51032344163859E-20   6.80080086151980E-15
      2.66567763163631E-15  -1.00000000000000E+00  -1.00000000000000E+00   0.00000000000000E+00   0.00000000000000E+00
     -1.48113887942009E-21  -8.71745130341017E-15  -8.71745278454905E-15  -1.55456133753720E-15   0.00000000000000E+00
      0.00000000000000E+00   0.00000000000000E+00   0.00000000000000E+00  -5.25964634587169E-28   1.91665192302973E-15
      1.91665192302920E-15  -8.47839374911387E-16
      4.00000000000000E-01
      0.00000000000000E+00   0.00000000000000E+00   0.00000000000000E+00   0.00000000000000E+00   5.02266585662342E-36
     -5.02266585662342E-36   0.00000000000000E+00  -3.68210325996188E-16   0.00000000000000E+00   0.00000000000000E+00
      0.00000000000000E+00   0.00000000000000E+00   6.71155743224231E-15   7.64690761523637E-20   6.71163390131846E-15
      2.71029921742853E-15  -1.00000000000000E+00  -1.00000000000000E+00   0.00000000000000E+00   0.00000000000000E+00
     -1.48115030318408E-21  -2.86642355933073E-14  -2.86642370744576E-14  -1.52426852040846E-15   0.00000000000000E+00
      0.00000000000000E+00   0.00000000000000E+00   0.00000000000000E+00   1.55195158382147E-28   2.19526031731389E-14
      2.19526031731391E-14  -8.17820371023893E-16
      4.63722705600856E-01
     -1.59306764002139E-01  -1.59306764002139E-01   0.00000000000000E+00   0.00000000000000E+00   5.04802813037666E-36
     -5.04802813037666E-36   0.00000000000000E+00  -5.14023872165795E-16   0.00000000000000E+00   0.00000000000000E+00
      0.00000000000000E+00   0.00000000000000E+00   6.63621685770703E-15   1.34922203076038E-19   6.63635177991011E-15
      2.77044129345848E-15  -1.00000000000000E+00  -1.00000000000000E+00   0.00000000000000E+00   0.00000000000000E+00
     -1.48116638764783E-21  -8.02690629044474E-13  -8.02690630525640E-13  -1.48116751116594E-15   0.00000000000000E+00
      0.00000000000000E+00   0.00000000000000E+00   0.00000000000000E+00  -4.92349661475130E-28   7.96054278745731E-13
      7.96054278745730E-13  -7.75249910126743E-16
      5.00000000000000E-01
     -2.50000000000000E-01  -2.50000000000000E-01   0.00000000000000E+00   0.00000000000000E+00   5.06704514469897E-36
     -5.06704514469897E-36   0.00000000000000E+00  -5.95895254213188E-16   0.00000000000000E+00   0.00000000000000E+00
      0.00000000000000E+00   0.00000000000000E+00   6.61463581687628E-15  -1.00406188488551E-19   6.61453541068779E-15
      2.80344809602803E-15  -1.00000000000000E+00  -1.00000000000000E+00   0.00000000000000E+00   0.00000000000000E+00
     -1.48117538647590E-21  -6.55491883212850E-12  -6.55491883360968E-12  -1.45649984690144E-15   0.00000000000000E+00
      0.00000000000000E+00   0.00000000000000E+00   0.00000000000000E+00  -2.19422584017818E-28   6.54830429819900E-12
      6.54830429819900E-12  -7.51052994913397E-16
      5.38870850416522E-01
     -3.47177126041305E-01  -3.47177126041305E-01   0.00000000000000E+00   0.00000000000000E+00   2.31694429328428E-36
     -2.31694429328428E-36   0.00000000000000E+00  -6.82870286354911E-16   0.00000000000000E+00   0.00000000000000E+00
      0.00000000000000E+00   0.00000000000000E+00   6.56576152679924E-15   2.63356403724610E-20   6.56578786243961E-15
      2.83813641591909E-15  -1.00000000000000E+00  -1.00000000000000E+00   0.00000000000000E+00   0.00000000000000E+00
     -1.48131411518860E-21  -6.53222892582843E-11  -6.53222892597656E-11  -1.42997053394553E-15   0.00000000000000E+00
      0.00000000000000E+00   0.00000000000000E+00   0.00000000000000E+00   1.33241104527283E-28   6.53157234719032E-11
      6.53157234719032E-11  -7.25295595618648E-16
      5.86293287924679E-01
     -4.65733219811697E-01  -4.65733219811697E-01   0.00000000000000E+00   0.00000000000000E+00   8.09277907851237E-36
     -8.09277907851237E-36   0.00000000000000E+00  -7.88248995365321E-16   0.00000000000000E+00   0.00000000000000E+00
      0.00000000000000E+00   0.00000000000000E+00   6.49867070577017E-15   1.48730984417537E-19   6.49881943675459E-15
      2.88013404305425E-15  -1.00000000000000E+00  -1.00000000000000E+00   0.00000000000000E+00   0.00000000000000E+00
     -1.48119734092265E-21  -1.13064700929119E-09  -1.13064700929267E-09  -1.39747472802023E-15   0.00000000000000E+00
      0.00000000000000E+00   0.00000000000000E+00   0.00000000000000E+00  -1.53879055143811E-28   1.13064051047325E-09
      1.13064051047325E-09  -6.94410319668708E-16
      6.00000000000000E-01
     -5.00000000000000E-01  -5.00000000000000E-01   0.00000000000000E+00   0.00000000000000E+00   5.11636409125248E-36
     -5.11636409125248E-36   0.00000000000000E+00  -8.18655541248297E-16   0.00000000000000E+00   0.00000000000000E+00
      0.00000000000000E+00   0.00000000000000E+00   6.47967655957052E-15   4.66999919417215E-20   6.47972325956247E-15
      2.89238140147029E-15  -1.00000000000000E+00  -1.00000000000000E+00   0.00000000000000E+00   0.00000000000000E+00
     -1.48120099296175E-21  -2.59177268702004E-09  -2.59177268702152E-09  -1.38805695346215E-15   0.00000000000000E+00
      0.00000000000000E+00   0.00000000000000E+00   0.00000000000000E+00   3.68629094697802E-28   2.59176620729829E-09
      2.59176620729829E-09  -6.85668906759825E-16
      6.57855373759951E-01
     -6.44638434399878E-01  -6.44638434399878E-01   0.00000000000000E+00   0.00000000000000E+00   2.25298827594256E-36
     -2.25298827594256E-36   0.00000000000000E+00  -9.48747509153331E-16   0.00000000000000E+00   0.00000000000000E+00
      0.00000000000000E+00   0.00000000000000E+00   6.40006964833762E-15   3.22234711885881E-19   6.40039188304950E-15
      2.94727360515937E-15  -1.00000000000000E+00  -1.00000000000000E+00   0.00000000000000E+00   0.00000000000000E+00
     -1.48122657511818E-21  -8.02738952277517E-08  -8.02738952277532E-08  -1.34820292779459E-15   0.00000000000000E+00
      0.00000000000000E+00   0.00000000000000E+00   0.00000000000000E+00   1.05906598047743E-26   8.02738888273622E-08
      8.02738888273622E-08  -6.50323168211463E-16
      7.00000000000000E-01
     -7.50000000000000E-01  -7.50000000000000E-01   0.00000000000000E+00   0.00000000000000E+00   8.09896984025905E-36
     -8.09896984025905E-36   0.00000000000000E+00  -1.05122359205364E-15   0.00000000000000E+00   0.00000000000000E+00
      0.00000000000000E+00   0.00000000000000E+00   6.38203078557418E-15  -2.38430989534726E-17   6.35818768662071E-15
      2.99700668954269E-15  -1.00000000000000E+00  -1.00000000000000E+00   0.00000000000000E+00   0.00000000000000E+00
     -1.48131995423936E-21  -6.36616097721804E-07  -6.36616097721805E-07  -1.31919726992691E-15   0.00000000000000E+00
      0.00000000000000E+00   0.00000000000000E+00   0.00000000000000E+00   8.39749203611944E-26   6.36616091363622E-07
      6.36616091363622E-07  -6.26585827562167E-16
      7.34713224255971E-01
     -8.36783060639927E-01  -8.36783060639927E-01   0.00000000000000E+00   0.00000000000000E+00   5.13137335068851E-36
     -5.13137335068851E-36   0.00000000000000E+00  -1.14427604010530E-15   0.00000000000000E+00   0.00000000000000E+00
      0.00000000000000E+00   0.00000000000000E+00   6.40299391327037E-15  -6.46580577556631E-19   6.40234733269281E-15
      3.04782781277491E-15  -1.00000000000000E+00  -1.00000000000000E+00   0.00000000000000E+00   0.00000000000000E+00
     -1.48153955952516E-21  -2.05538824302918E-06  -2.05538824302919E-06  -1.29551952089950E-15   0.00000000000000E+00
      0.00000000000000E+00   0.00000000000000E+00   0.00000000000000E+00   2.69693570657506E-25   2.05538823662689E-06
      2.05538823662689E-06  -6.08032251770091E-16
      7.77063357848255E-01
     -9.42658394620638E-01  -9.42658394620638E-01   0.00000000000000E+00   0.00000000000000E+00   5.12600823560344E-36
     -5.12600823560344E-36   0.00000000000000E+00  -1.26599595567717E-15   0.00000000000000E+00   0.00000000000000E+00
      0.00000000000000E+00   0.00000000000000E+00   6.44787326833307E-15  -1.75528012868852E-19   6.44769774032020E-15
      3.11908924694036E-15  -1.00000000000000E+00  -1.00000000000000E+00   0.00000000000000E+00   0.00000000000000E+00
     -1.48203399229371E-21  -5.31183807732916E-06  -5.31183807732916E-06  -1.26701137959548E-15   0.00000000000000E+00
      0.00000000000000E+00   0.00000000000000E+00   0.00000000000000E+00   6.97099177863153E-25   5.31183807088152E-06
      5.31183807088152E-06  -5.86081911667701E-16
      8.00000000000000E-01
     -1.00000000000000E+00  -1.00000000000000E+00   0.00000000000000E+00   0.00000000000000E+00   5.08561625038161E-36
     -5.08561625038161E-36   0.00000000000000E+00  -1.33452938467433E-15   0.00000000000000E+00   0.00000000000000E+00
      0.00000000000000E+00   0.00000000000000E+00   6.47582665485661E-15  -3.45089660361456E-16   6.13073699449515E-15
      3.16067546917652E-15  -1.00000000000000E+00  -1.00000000000000E+00   0.00000000000000E+00   0.00000000000000E+00
     -1.48240353822050E-21  -7.75994615052497E-06  -7.75994615052497E-06  -1.25174815110254E-15   0.00000000000000E+00
      0.00000000000000E+00   0.00000000000000E+00   0.00000000000000E+00   1.01739389205133E-24   7.75994614439430E-06
      7.75994614439430E-06  -5.74397933399648E-16
      8.52514165654432E-01
     -1.13128541413608E+00  -1.13128541413608E+00   0.00000000000000E+00   0.00000000000000E+00   5.12290859829561E-36
     -5.12290859829561E-36   0.00000000000000E+00  -1.49624138816964E-15   0.00000000000000E+00   0.00000000000000E+00
      0.00000000000000E+00   0.00000000000000E+00   6.54323508584640E-15   9.09882020243629E-14   9.75314371102093E-14
      3.26150640563431E-15  -1.00000000000000E+00  -1.00000000000000E+00   0.00000000000000E+00   0.00000000000000E+00
     -1.48349079649638E-21  -1.49866740579727E-05  -1.49866740579727E-05  -1.21724256091340E-15   0.00000000000000E+00
      0.00000000000000E+00   0.00000000000000E+00   0.00000000000000E+00   1.96587654999004E-24   1.49866739604413E-05
      1.49866739604413E-05  -5.48022456551262E-16
      9.00000000000000E-01
     -1.25000000000000E+00  -1.25000000000000E+00   0.00000000000000E+00   0.00000000000000E+00   5.13782477331403E-36
     -5.13782477331403E-36   0.00000000000000E+00  -1.64677299032031E-15   0.00000000000000E+00   0.00000000000000E+00
      0.00000000000000E+00   0.00000000000000E+00   6.60461816139783E-15   2.10299507738409E-14   2.76345689352387E-14
      3.35782221826929E-15  -1.00000000000000E+00  -1.00000000000000E+00   0.00000000000000E+00   0.00000000000000E+00
     -1.48472472944127E-21  -2.32076183509221E-05  -2.32076183509221E-05  -1.18653497625031E-15   0.00000000000000E+00
      0.00000000000000E+00   0.00000000000000E+00   0.00000000000000E+00   3.04401620252246E-24   2.32076183232876E-05
      2.32076183232876E-05  -5.24514251698718E-16
      9.66167848724585E-01
     -1.41541962181146E+00  -1.41541962181146E+00   0.00000000000000E+00   0.00000000000000E+00   5.16208573920083E-36