DF-ISE text

Info {
  version   = 1.0
  type      = xyplot
  datasets  = [
    "time"
    "gate OuterVoltage" "gate InnerVoltage" "gate QuasiFermiPotential" "gate DisplacementCurrent" "gate eCurrent"
    "gate hCurrent" "gate TotalCurrent" "gate Charge" "substrate OuterVoltage" "substrate InnerVoltage"
    "substrate QuasiFermiPotential" "substrate DisplacementCurrent" "substrate eCurrent" "substrate hCurrent" "substrate TotalCurrent"
    "substrate Charge" "drain OuterVoltage" "drain InnerVoltage" "drain QuasiFermiPotential" "drain DisplacementCurrent"
    "drain eCurrent" "drain hCurrent" "drain TotalCurrent" "drain Charge" "source OuterVoltage"
    "source InnerVoltage" "source QuasiFermiPotential" "source DisplacementCurrent" "source eCurrent" "source hCurrent"
    "source TotalCurrent" "source Charge" ]
  functions = [
    Time
    OuterVoltage InnerVoltage QuasiFermiPotential DisplacementCurrent eCurrent
    hCurrent TotalCurrent Charge OuterVoltage InnerVoltage
    QuasiFermiPotential DisplacementCurrent eCurrent hCurrent TotalCurrent
    Charge OuterVoltage InnerVoltage QuasiFermiPotential DisplacementCurrent
    eCurrent hCurrent TotalCurrent Charge OuterVoltage
    InnerVoltage QuasiFermiPotential DisplacementCurrent eCurrent hCurrent
    TotalCurrent Charge ]
}

Data {
      0.00000000000000E+00
     -1.00000000000000E+00  -1.00000000000000E+00   0.00000000000000E+00   0.00000000000000E+00   6.73951061632305E-37
     -6.73951061632305E-37   0.00000000000000E+00  -6.49027478635008E-16   0.00000000000000E+00   0.00000000000000E+00
      0.00000000000000E+00   0.00000000000000E+00  -9.15042708277967E-19  -1.07944268177532E-14  -1.07953418604615E-14
     -7.80285132871839E-15   1.00000000000000E+00   1.00000000000000E+00   0.00000000000000E+00   0.00000000000000E+00
      6.21883129537610E-04   8.65656169776865E-21   6.21883129537610E-04   5.06096891659074E-15   0.00000000000000E+00
      0.00000000000000E+00   0.00000000000000E+00   0.00000000000000E+00  -6.21883129526816E-04  -5.46490090913434E-24
     -6.21883129526816E-04   3.39090989076267E-15
      1.00000000000000E-03
     -9.97500000000000E-01  -9.97500000000000E-01   0.00000000000000E+00   0.00000000000000E+00   4.30446992770753E-35
     -4.30446992770753E-35   0.00000000000000E+00  -6.47948150111448E-16   0.00000000000000E+00   0.00000000000000E+00
      0.00000000000000E+00   0.00000000000000E+00   3.16757408754412E-14  -1.07948177163968E-14   2.08809231590445E-14
     -7.80286422528257E-15   1.00000000000000E+00   1.00000000000000E+00   0.00000000000000E+00   0.00000000000000E+00
      6.22067093395780E-04   8.65658972500782E-21   6.22067093395780E-04   5.06034460535804E-15   0.00000000000000E+00
      0.00000000000000E+00   0.00000000000000E+00   0.00000000000000E+00  -6.22067093416662E-04  -5.47276084397981E-24
     -6.22067093416662E-04   3.39046777003597E-15
      2.30000000000000E-03
     -9.94250000000000E-01  -9.94250000000000E-01   0.00000000000000E+00   0.00000000000000E+00   1.28926014223510E-36
     -1.28926014223510E-36   0.00000000000000E+00  -6.46545041803966E-16   0.00000000000000E+00   0.00000000000000E+00
      0.00000000000000E+00   0.00000000000000E+00   4.59204072553109E-16  -1.07953259269401E-14  -1.03361218543870E-14
     -7.80288099208042E-15   1.00000000000000E+00   1.00000000000000E+00   0.00000000000000E+00   0.00000000000000E+00
      6.22306249435349E-04   8.65663318326986E-21   6.22306249435349E-04   5.05953299744137E-15   0.00000000000000E+00
      0.00000000000000E+00   0.00000000000000E+00   0.00000000000000E+00  -6.22306249425015E-04  -5.44807415706170E-24
     -6.22306249425015E-04   3.38989303644299E-15
      3.99000000000000E-03
     -9.90025000000000E-01  -9.90025000000000E-01   0.00000000000000E+00   0.00000000000000E+00   2.32871469640036E-36
     -2.32871469640036E-36   0.00000000000000E+00  -6.44721031695249E-16   0.00000000000000E+00   0.00000000000000E+00
      0.00000000000000E+00   0.00000000000000E+00   1.30273062860251E-15  -1.07959866585956E-14  -9.49325602999309E-15
     -7.80290278872687E-15   1.00000000000000E+00   1.00000000000000E+00   0.00000000000000E+00   0.00000000000000E+00
      6.22617161589127E-04   8.65668566151714E-21   6.22617161589127E-04   5.05847790050774E-15   0.00000000000000E+00
      0.00000000000000E+00   0.00000000000000E+00   0.00000000000000E+00  -6.22617161579635E-04  -5.44628390351589E-24
     -6.22617161579635E-04   3.38914591991438E-15
      6.18700000000000E-03
     -9.84532500000000E-01  -9.84532500000000E-01   0.00000000000000E+00   0.00000000000000E+00   5.47398920822945E-36
     -5.47398920822945E-36   0.00000000000000E+00  -6.42349870057947E-16   0.00000000000000E+00   0.00000000000000E+00
      0.00000000000000E+00   0.00000000000000E+00   3.73849435568314E-15  -1.07968456963330E-14  -7.05835134064981E-15
     -7.80293112212813E-15   1.00000000000000E+00   1.00000000000000E+00   0.00000000000000E+00   0.00000000000000E+00
      6.23021359361502E-04   8.65675375673801E-21   6.23021359361502E-04   5.05710626188600E-15   0.00000000000000E+00
      0.00000000000000E+00   0.00000000000000E+00   0.00000000000000E+00  -6.23021359354445E-04  -5.43348011819599E-24
     -6.23021359354445E-04   3.38817473030010E-15
      9.04310000000000E-03
     -9.77392250000000E-01  -9.77392250000000E-01   0.00000000000000E+00   0.00000000000000E+00   1.45099957761468E-35
     -1.45099957761468E-35   0.00000000000000E+00  -6.39267448594299E-16   0.00000000000000E+00   0.00000000000000E+00
      0.00000000000000E+00   0.00000000000000E+00   1.06788838999556E-14  -1.07979625997821E-14  -1.19078699826466E-16
     -7.80296795380726E-15   1.00000000000000E+00   1.00000000000000E+00   0.00000000000000E+00   0.00000000000000E+00
      6.23546838421252E-04   8.65684193325139E-21   6.23546838421252E-04   5.05532311344934E-15   0.00000000000000E+00
      0.00000000000000E+00   0.00000000000000E+00   0.00000000000000E+00  -6.23546838421134E-04  -5.49223053287142E-24
     -6.23546838421134E-04   3.38691228895223E-15
      1.27560300000000E-02
     -9.68109925000000E-01  -9.68109925000000E-01   0.00000000000000E+00   0.00000000000000E+00   4.06737503006406E-35
     -4.06737503006406E-35   0.00000000000000E+00  -6.35260452106599E-16   0.00000000000000E+00   0.00000000000000E+00
      0.00000000000000E+00   0.00000000000000E+00   2.92789073159488E-14  -1.07994147891430E-14   1.84794925268059E-14
     -7.80301584454873E-15   1.00000000000000E+00   1.00000000000000E+00   0.00000000000000E+00   0.00000000000000E+00
      6.24229974540362E-04   8.65695565260166E-21   6.24229974540362E-04   5.05300501070218E-15   0.00000000000000E+00
      0.00000000000000E+00   0.00000000000000E+00   0.00000000000000E+00  -6.24229974558843E-04  -5.45080352553109E-24
     -6.24229974558843E-04   3.38527128595314E-15
      1.75828390000000E-02
     -9.56042902500000E-01  -9.56042902500000E-01   0.00000000000000E+00   0.00000000000000E+00   1.16761711147295E-34
     -1.16761711147295E-34   0.00000000000000E+00  -6.30051616018546E-16   0.00000000000000E+00   0.00000000000000E+00
      0.00000000000000E+00   0.00000000000000E+00   8.41415949845234E-14  -1.08013030212896E-14   7.33402919632337E-14
     -7.80307810924683E-15   1.00000000000000E+00   1.00000000000000E+00   0.00000000000000E+00   0.00000000000000E+00
      6.25118088313264E-04   8.65710079015385E-21   6.25118088313264E-04   5.04999145060897E-15   0.00000000000000E+00
      0.00000000000000E+00   0.00000000000000E+00   0.00000000000000E+00  -6.25118088386606E-04  -5.49787325919222E-24
     -6.25118088386606E-04   3.38313827465639E-15
      2.38576907000000E-02
     -9.40355773250000E-01  -9.40355773250000E-01   0.00000000000000E+00   0.00000000000000E+00   3.39096131570617E-34
     -3.39096131570617E-34   0.00000000000000E+00  -6.23280585717954E-16   0.00000000000000E+00   0.00000000000000E+00
      0.00000000000000E+00   0.00000000000000E+00   2.46519617489940E-13  -1.08037583518233E-14   2.35715859138117E-13
     -7.80315906435472E-15   1.00000000000000E+00   1.00000000000000E+00   0.00000000000000E+00   0.00000000000000E+00
      6.26272664421502E-04   8.65728226169326E-21   6.26272664421502E-04   5.04607378269539E-15   0.00000000000000E+00
      0.00000000000000E+00   0.00000000000000E+00   0.00000000000000E+00  -6.26272664657220E-04  -5.47345646078048E-24
     -6.26272664657220E-04   3.38036586737726E-15
      3.20149979100000E-02
     -9.19962505225000E-01  -9.19962505225000E-01   0.00000000000000E+00   0.00000000000000E+00   6.86635171882027E-37
     -6.86635171882027E-37   0.00000000000000E+00  -6.14479014899367E-16   0.00000000000000E+00   0.00000000000000E+00
      0.00000000000000E+00   0.00000000000000E+00  -1.32732636980440E-18  -1.08069510442208E-14  -1.08082783705907E-14
     -7.80326430280889E-15   1.00000000000000E+00   1.00000000000000E+00   0.00000000000000E+00   0.00000000000000E+00
      6.27773578753736E-04   8.65755760683911E-21   6.27773578753736E-04   5.04098075605295E-15   0.00000000000000E+00
      0.00000000000000E+00   0.00000000000000E+00   0.00000000000000E+00  -6.27773578742930E-04  -5.50142820659069E-24
     -6.27773578742930E-04   3.37676256165529E-15
      4.24563511388000E-02
     -8.93859122153000E-01  -8.93859122153000E-01   0.00000000000000E+00   0.00000000000000E+00   6.91128918978423E-37
     -6.91128918978423E-37   0.00000000000000E+00  -6.03214301777077E-16   0.00000000000000E+00   0.00000000000000E+00
      0.00000000000000E+00   0.00000000000000E+00  -4.47495276761065E-18  -1.08110390128399E-14  -1.08155139656075E-14
     -7.80339898378890E-15   1.00000000000000E+00   1.00000000000000E+00   0.00000000000000E+00   0.00000000000000E+00
      6.29694765393523E-04   8.65788246310785E-21   6.29694765393523E-04   5.03446158993483E-15   0.00000000000000E+00
      0.00000000000000E+00   0.00000000000000E+00   0.00000000000000E+00  -6.29694765382709E-04  -5.52958217309554E-24
     -6.29694765382709E-04   3.37215169563112E-15
      5.58212832716640E-02
     -8.60446791820840E-01  -8.60446791820840E-01   0.00000000000000E+00   0.00000000000000E+00   6.83303888262729E-37
     -6.83303888262729E-37   0.00000000000000E+00  -5.88797698753912E-16   0.00000000000000E+00   0.00000000000000E+00
      0.00000000000000E+00   0.00000000000000E+00  -1.84082644797157E-18  -1.08162737068016E-14  -1.08181145332496E-14
     -7.80357137157432E-15   1.00000000000000E+00   1.00000000000000E+00   0.00000000000000E+00   0.00000000000000E+00
      6.32153866567666E-04   8.65829830348536E-21   6.32153866567666E-04   5.02611703121783E-15   0.00000000000000E+00
      0.00000000000000E+00   0.00000000000000E+00   0.00000000000000E+00  -6.32153866556849E-04  -5.56005172806467E-24
     -6.32153866556849E-04   3.36625203911039E-15
      7.29283964017299E-02
     -8.17679008995675E-01  -8.17679008995675E-01   0.00000000000000E+00   0.00000000000000E+00   6.91122114899431E-37
     -6.91122114899431E-37   0.00000000000000E+00  -5.70348272782719E-16   0.00000000000000E+00   0.00000000000000E+00
      0.00000000000000E+00   0.00000000000000E+00  -4.49028607190471E-18  -1.08229768272762E-14  -1.08274671133482E-14
     -7.80379200712202E-15   1.00000000000000E+00   1.00000000000000E+00   0.00000000000000E+00   0.00000000000000E+00
      6.35301220917508E-04   8.65883057302170E-21   6.35301220917508E-04   5.01543611637197E-15   0.00000000000000E+00
      0.00000000000000E+00   0.00000000000000E+00   0.00000000000000E+00  -6.35301220906682E-04  -5.61075156385684E-24
     -6.35301220906682E-04   3.35870416353278E-15
      9.48255012082143E-02
     -7.62936246979464E-01  -7.62936246979464E-01   0.00000000000000E+00   0.00000000000000E+00   7.19043526031853E-37
     -7.19043526031853E-37   0.00000000000000E+00  -5.46739720920607E-16   0.00000000000000E+00   0.00000000000000E+00
      0.00000000000000E+00   0.00000000000000E+00  -4.52920825088933E-19  -1.08315613141867E-14  -1.08320142350117E-14
     -7.80407443735908E-15   1.00000000000000E+00   1.00000000000000E+00   0.00000000000000E+00   0.00000000000000E+00
      6.39329502512675E-04   8.65951188960800E-21   6.39329502512675E-04   5.00176502076357E-15   0.00000000000000E+00
      0.00000000000000E+00   0.00000000000000E+00   0.00000000000000E+00  -6.39329502501845E-04  -5.59408795620950E-24
     -6.39329502501845E-04   3.34904913751608E-15
      1.00000000000000E-01
     -7.50000000000000E-01  -7.50000000000000E-01   0.00000000000000E+00   0.00000000000000E+00   6.93631640594759E-37
     -6.93631640594759E-37   0.00000000000000E+00  -5.41161953980609E-16   0.00000000000000E+00   0.00000000000000E+00
      0.00000000000000E+00   0.00000000000000E+00  -1.61369299311752E-18  -1.08335906604924E-14  -1.08352043534855E-14
     -7.80414118656647E-15   1.00000000000000E+00   1.00000000000000E+00   0.00000000000000E+00   0.00000000000000E+00
      6.40281400559452E-04   8.65967290759455E-21   6.40281400559452E-04   4.99853452435328E-15   0.00000000000000E+00
      0.00000000000000E+00   0.00000000000000E+00   0.00000000000000E+00  -6.40281400548618E-04  -5.60245969863093E-24
     -6.40281400548618E-04   3.34676861619379E-15
      1.28028294152300E-01
     -6.79929264619250E-01  -6.79929264619250E-01   0.00000000000000E+00   0.00000000000000E+00   1.47589019745909E-36
     -1.47589019745909E-36   0.00000000000000E+00  -5.10957439151336E-16   0.00000000000000E+00   0.00000000000000E+00
      0.00000000000000E+00   0.00000000000000E+00  -7.40983901610588E-17  -1.08445827081737E-14  -1.09186810983348E-14
     -7.80450272899138E-15   1.00000000000000E+00   1.00000000000000E+00   0.00000000000000E+00   0.00000000000000E+00
      6.45435260859076E-04   8.66054460676792E-21   6.45435260859076E-04   4.98103779387844E-15   0.00000000000000E+00
      0.00000000000000E+00   0.00000000000000E+00   0.00000000000000E+00  -6.45435260848159E-04  -5.66515648810052E-24
     -6.45435260848159E-04   3.33442237426427E-15
      1.63904510667244E-01
     -5.90238723331890E-01  -5.90238723331890E-01   0.00000000000000E+00   0.00000000000000E+00   4.33282638381151E-36
     -4.33282638381151E-36   0.00000000000000E+00  -4.72317474619206E-16   0.00000000000000E+00   0.00000000000000E+00
      0.00000000000000E+00   0.00000000000000E+00  -2.09091103703776E-16  -1.08586494153132E-14  -1.10677405190170E-14
     -7.80496601512161E-15   1.00000000000000E+00   1.00000000000000E+00   0.00000000000000E+00   0.00000000000000E+00
      6.52026305574224E-04   8.66165936361637E-21   6.52026305574224E-04   4.95864781762365E-15   0.00000000000000E+00
      0.00000000000000E+00   0.00000000000000E+00   0.00000000000000E+00  -6.52026305563158E-04  -5.74474140552931E-24
     -6.52026305563158E-04   3.31863567211718E-15
      2.00000000000000E-01
     -5.00000000000000E-01  -5.00000000000000E-01   0.00000000000000E+00   0.00000000000000E+00   6.31045171278182E-36
     -6.31045171278182E-36   0.00000000000000E+00  -4.33469260369523E-16   0.00000000000000E+00   0.00000000000000E+00
      0.00000000000000E+00   0.00000000000000E+00  -2.59535606669801E-16  -1.08727988119808E-14  -1.11323344186506E-14
     -7.80543224706427E-15   1.00000000000000E+00   1.00000000000000E+00   0.00000000000000E+00   0.00000000000000E+00
      6.58652569704597E-04   8.66278020704067E-21   6.58652569704597E-04   4.93612859723491E-15   0.00000000000000E+00
      0.00000000000000E+00   0.00000000000000E+00   0.00000000000000E+00  -6.58652569693466E-04  -5.77852567226237E-24
     -6.58652569693466E-04   3.30277291019885E-15
      2.45921557139128E-01
     -3.85196107152179E-01  -3.85196107152179E-01   0.00000000000000E+00   0.00000000000000E+00   3.22874807076281E-35
     -3.22874807076281E-35   0.00000000000000E+00  -3.84091567590771E-16   0.00000000000000E+00   0.00000000000000E+00
      0.00000000000000E+00   0.00000000000000E+00  -1.02682946929035E-15  -1.08907700958588E-14  -1.19175995651492E-14
     -7.80602521059486E-15   1.00000000000000E+00   1.00000000000000E+00   0.00000000000000E+00   0.00000000000000E+00
      6.67067363350237E-04   8.66419532253654E-21   6.67067363350237E-04   4.90749590034734E-15   0.00000000000000E+00
      0.00000000000000E+00   0.00000000000000E+00   0.00000000000000E+00  -6.67067363338321E-04  -5.84032004892046E-24
     -6.67067363338321E-04   3.28262087783826E-15
      3.00000000000000E-01
     -2.50000000000000E-01  -2.50000000000000E-01   0.00000000000000E+00   0.00000000000000E+00   1.36522778952061E-34
     -1.36522778952061E-34   0.00000000000000E+00  -3.26020128006769E-16   0.00000000000000E+00   0.00000000000000E+00
      0.00000000000000E+00   0.00000000000000E+00  -3.61304358401735E-15  -1.09118753023032E-14  -1.45249188863205E-14
     -7.80672433874014E-15   1.00000000000000E+00   1.00000000000000E+00   0.00000000000000E+00   0.00000000000000E+00
      6.76955043745797E-04   8.66578401349189E-21   6.76955043745797E-04   4.87380919677533E-15   0.00000000000000E+00
      0.00000000000000E+00   0.00000000000000E+00   0.00000000000000E+00  -6.76955043731275E-04  -5.91678111387942E-24
     -6.76955043731275E-04   3.25893526997159E-15
      3.58779593138084E-01
     -1.03051017154789E-01  -1.03051017154789E-01   0.00000000000000E+00   0.00000000000000E+00   6.79416503339359E-37
     -6.79416503339359E-37   0.00000000000000E+00  -2.63012573644303E-16   0.00000000000000E+00   0.00000000000000E+00
      0.00000000000000E+00   0.00000000000000E+00   1.73498380165458E-18  -1.09346964471371E-14  -1.09329614633354E-14
     -7.80748482739669E-15   1.00000000000000E+00   1.00000000000000E+00   0.00000000000000E+00   0.00000000000000E+00
      6.87667429992272E-04   8.66769346342022E-21   6.87667429992272E-04   4.83724611451432E-15   0.00000000000000E+00
      0.00000000000000E+00   0.00000000000000E+00   0.00000000000000E+00  -6.87667429981340E-04  -6.02677077201036E-24
     -6.87667429981340E-04   3.23325128652664E-15
      4.00000000000000E-01
      0.00000000000000E+00   0.00000000000000E+00   0.00000000000000E+00   0.00000000000000E+00   8.15408982347888E-36
     -8.15408982347888E-36   0.00000000000000E+00  -2.18908807271585E-16   0.00000000000000E+00   0.00000000000000E+00
      0.00000000000000E+00   0.00000000000000E+00  -1.20773575234795E-15  -1.09505900473304E-14  -1.21583257996784E-14
     -7.80801824537417E-15   1.00000000000000E+00   1.00000000000000E+00   0.00000000000000E+00   0.00000000000000E+00
      6.95151453076001E-04   8.66888589515249E-21   6.95151453076001E-04   4.81164700374524E-15   0.00000000000000E+00
      0.00000000000000E+00   0.00000000000000E+00   0.00000000000000E+00  -6.95151453063845E-04  -6.11677656372654E-24
     -6.95151453063845E-04   3.21528004890047E-15
      4.74062287353986E-01
      1.85155718384966E-01   1.85155718384966E-01   0.00000000000000E+00   0.00000000000000E+00   6.88225449120754E-37
     -6.88225449120754E-37   0.00000000000000E+00  -1.39865087683925E-16   0.00000000000000E+00   0.00000000000000E+00
      0.00000000000000E+00   0.00000000000000E+00   2.24339449312697E-18  -1.09788286910186E-14  -1.09765852965255E-14
     -7.80897747202845E-15   1.00000000000000E+00   1.00000000000000E+00   0.00000000000000E+00   0.00000000000000E+00
      7.08524526030352E-04   8.67122727530131E-21   7.08524526030352E-04   4.76576238242774E-15   0.00000000000000E+00
      0.00000000000000E+00   0.00000000000000E+00   0.00000000000000E+00  -7.08524526019377E-04  -6.25204607812862E-24
     -7.08524526019377E-04   3.18308017728462E-15
      5.00000000000000E-01
      2.50000000000000E-01   2.50000000000000E-01   0.00000000000000E+00   0.00000000000000E+00  -8.72297062932236E-35
      8.72297062932236E-35   0.00000000000000E+00  -1.12251004871826E-16   0.00000000000000E+00   0.00000000000000E+00
      0.00000000000000E+00   0.00000000000000E+00  -1.90456953975235E-16  -1.09886037515362E-14  -1.11790607055114E-14
     -7.80931354900387E-15   1.00000000000000E+00   1.00000000000000E+00   0.00000000000000E+00   0.00000000000000E+00
      7.13182842900644E-04   8.67196856950473E-21   7.13182842900644E-04   4.74973194392853E-15   0.00000000000000E+00
      0.00000000000000E+00   0.00000000000000E+00   0.00000000000000E+00  -7.13182842889467E-04  -6.25821140966347E-24
     -7.13182842889467E-04   3.17183260994718E-15
      5.93318482066023E-01
      4.83296205165057E-01   4.83296205165057E-01   0.00000000000000E+00   0.00000000000000E+00   4.77095391187096E-36
     -4.77095391187096E-36   0.00000000000000E+00  -1.32348479419472E-17   0.00000000000000E+00   0.00000000000000E+00
      0.00000000000000E+00   0.00000000000000E+00  -8.88783247139315E-18  -1.10231841765107E-14  -1.10320720089821E-14
     -7.81052282284789E-15   1.00000000000000E+00   1.00000000000000E+00   0.00000000000000E+00   0.00000000000000E+00
      7.29805722775593E-04   8.67483505210541E-21   7.29805722775593E-04   4.69226107183237E-15   0.00000000000000E+00
      0.00000000000000E+00   0.00000000000000E+00   0.00000000000000E+00  -7.29805722764564E-04  -6.40628606423970E-24
     -7.29805722764564E-04   3.13149659895747E-15
      6.00000000000000E-01
      5.00000000000000E-01   5.00000000000000E-01   0.00000000000000E+00   0.00000000000000E+00  -8.04287464139481E-37
      8.04287464139481E-37   0.00000000000000E+00  -6.16674570059746E-18   0.00000000000000E+00   0.00000000000000E+00
      0.00000000000000E+00   0.00000000000000E+00  -1.86307813965333E-18  -1.10256230071630E-14  -1.10274860853027E-14
     -7.81060941589172E-15   1.00000000000000E+00   1.00000000000000E+00   0.00000000000000E+00   0.00000000000000E+00
      7.30986871526608E-04   8.67503542906571E-21   7.30986871526608E-04   4.68815959686613E-15   0.00000000000000E+00
      0.00000000000000E+00   0.00000000000000E+00   0.00000000000000E+00  -7.30986871515582E-04  -6.43771020615002E-24
     -7.30986871515582E-04   3.12861656472622E-15
      7.00000000000000E-01
      7.50000000000000E-01   7.50000000000000E-01   0.00000000000000E+00   0.00000000000000E+00   4.25030978989948E-33
     -4.25030978989948E-33   0.00000000000000E+00   9.92569318100476E-17   0.00000000000000E+00   0.00000000000000E+00
      0.00000000000000E+00   0.00000000000000E+00   2.48301234020700E-17  -1.10615048840716E-14  -1.10366747606695E-14
     -7.81190576615779E-15   1.00000000000000E+00   1.00000000000000E+00   0.00000000000000E+00   0.00000000000000E+00
      7.48497558607214E-04   8.67791306753554E-21   7.48497558607214E-04   4.62701197155470E-15   0.00000000000000E+00
      0.00000000000000E+00   0.00000000000000E+00   0.00000000000000E+00  -7.48497558596179E-04  -6.56855376151508E-24
     -7.48497558596179E-04   3.08563686279301E-15
      8.00000000000000E-01
      1.00000000000000E+00   1.00000000000000E+00   0.00000000000000E+00   0.00000000000000E+00   4.64657600651897E-33
     -4.64657600651897E-33   0.00000000000000E+00   2.03994637567436E-16   0.00000000000000E+00   0.00000000000000E+00
      0.00000000000000E+00   0.00000000000000E+00   6.67162928147565E-18  -1.10961980285158E-14  -1.10895263992343E-14
     -7.81320320709908E-15   1.00000000000000E+00   1.00000000000000E+00   0.00000000000000E+00   0.00000000000000E+00
      7.65653846760393E-04   8.68091381498586E-21   7.65653846760393E-04   4.56633578480510E-15   0.00000000000000E+00
      0.00000000000000E+00   0.00000000000000E+00   0.00000000000000E+00  -7.65653846749305E-04  -6.72352639073148E-24
     -7.65653846749305E-04   3.04287278472653E-15
      9.00000000000000E-01
      1.25000000000000E+00   1.25000000000000E+00   0.00000000000000E+00   0.00000000000000E+00   3.73008081942722E-33
     -3.73008081942722E-33   0.00000000000000E+00   3.08067290636811E-16   0.00000000000000E+00   0.00000000000000E+00
      0.00000000000000E+00   0.00000000000000E+00   3.39347602246604E-18  -1.11296836333135E-14  -1.11262901572910E-14
     -7.81450234592583E-15   1.00000000000000E+00   1.00000000000000E+00   0.00000000000000E+00   0.00000000000000E+00
      7.82407907584710E-04   8.68376458000633E-21   7.82407907584710E-04   4.50614454946433E-15   0.00000000000000E+00
      0.00000000000000E+00   0.00000000000000E+00   0.00000000000000E+00  -7.82407907573586E-04  -6.87465807413199E-24
     -7.82407907573586E-04   3.00029050582469E-15
      1.00000000000000E+00
      1.50000000000000E+00   1.50000000000000E+00   0.00000000000000E+00   0.00000000000000E+00   7.41754202461837E-33
     -7.41754202461837E-33   0.00000000000000E+00   4.11504684834447E-16   0.00000000000000E+00   0.00000000000000E+00
      0.00000000000000E+00   0.00000000000000E+00   1.48900812942379E-17  -1.11619535370605E-14  -1.11470634557663E-14
     -7.81580284661279E-15   1.00000000000000E+00   1.00000000000000E+00   0.00000000000000E+00   0.00000000000000E+00
      7.98728558340424E-04   8.68653951520206E-21   7.98728558340424E-04   4.44643793443406E-15   0.00000000000000E+00
      0.00000000000000E+00   0.00000000000000E+00   0.00000000000000E+00  -7.98728558329279E-04  -7.00183752900996E-24
     -7.98728558329279E-04   2.95786022734431E-15
}
