DF-ISE text

Info {
  version   = 1.0
  type      = xyplot
  datasets  = [
    "time"
    "gate OuterVoltage" "gate InnerVoltage" "gate QuasiFermiPotential" "gate DisplacementCurrent" "gate eCurrent"
    "gate hCurrent" "gate TotalCurrent" "gate Charge" "substrate OuterVoltage" "substrate InnerVoltage"
    "substrate QuasiFermiPotential" "substrate DisplacementCurrent" "substrate eCurrent" "substrate hCurrent" "substrate TotalCurrent"
    "substrate Charge" "drain OuterVoltage" "drain InnerVoltage" "drain QuasiFermiPotential" "drain DisplacementCurrent"
    "drain eCurrent" "drain hCurrent" "drain TotalCurrent" "drain Charge" "source OuterVoltage"
    "source InnerVoltage" "source QuasiFermiPotential" "source DisplacementCurrent" "source eCurrent" "source hCurrent"
    "source TotalCurrent" "source Charge" ]
  functions = [
    Time
    OuterVoltage InnerVoltage QuasiFermiPotential DisplacementCurrent eCurrent
    hCurrent TotalCurrent Charge OuterVoltage InnerVoltage
    QuasiFermiPotential DisplacementCurrent eCurrent hCurrent TotalCurrent
    Charge OuterVoltage InnerVoltage QuasiFermiPotential DisplacementCurrent
    eCurrent hCurrent TotalCurrent Charge OuterVoltage
    InnerVoltage QuasiFermiPotential DisplacementCurrent eCurrent hCurrent
    TotalCurrent Charge ]
}

Data {
      0.00000000000000E+00
      1.00000000000000E+00   1.00000000000000E+00   0.00000000000000E+00   0.00000000000000E+00   2.49716808169614E-36
     -2.49716808169614E-36   0.00000000000000E+00   8.43718474235571E-16   0.00000000000000E+00   0.00000000000000E+00
      0.00000000000000E+00   0.00000000000000E+00   2.64747893030841E-13   2.09734255858435E-22   2.64747893240575E-13
      5.11963828023246E-15  -1.00000000000000E+00  -1.00000000000000E+00   0.00000000000000E+00   0.00000000000000E+00
     -5.02596859884774E-22  -2.64747930240697E-13  -2.64747930743293E-13  -3.68685529315537E-15   0.00000000000000E+00
      0.00000000000000E+00   0.00000000000000E+00   0.00000000000000E+00  -2.20624003095730E-26   3.75027406389767E-20
      3.75027185765764E-20  -2.27650146131266E-15
      1.00000000000000E-03
      9.97500000000000E-01   9.97500000000000E-01   0.00000000000000E+00   0.00000000000000E+00   2.48114499938538E-36
     -2.48114499938538E-36   0.00000000000000E+00   8.40959972558919E-16   0.00000000000000E+00   0.00000000000000E+00
      0.00000000000000E+00   0.00000000000000E+00   2.64745275754949E-13   8.33330741488620E-21   2.64745284088257E-13
      5.12092062378462E-15  -1.00000000000000E+00  -1.00000000000000E+00   0.00000000000000E+00   0.00000000000000E+00
     -5.02596960553359E-22  -2.64745316869609E-13  -2.64745317372206E-13  -3.68610503221398E-15   0.00000000000000E+00
      0.00000000000000E+00   0.00000000000000E+00   0.00000000000000E+00   9.61020319692321E-27   3.32839386026148E-20
      3.32839482128180E-20  -2.27577556412956E-15
      2.28000000000000E-03
      9.94300000000000E-01   9.94300000000000E-01   0.00000000000000E+00   0.00000000000000E+00   2.47198855921952E-36
     -2.47198855921952E-36   0.00000000000000E+00   8.37430871104225E-16   0.00000000000000E+00   0.00000000000000E+00
      0.00000000000000E+00   0.00000000000000E+00   2.64741955921004E-13   2.32009375890438E-20   2.64741979121942E-13
      5.12255995737279E-15  -1.00000000000000E+00  -1.00000000000000E+00   0.00000000000000E+00   0.00000000000000E+00
     -5.02596980626561E-22  -2.64741993124667E-13  -2.64741993627264E-13  -3.68514456397733E-15   0.00000000000000E+00
      0.00000000000000E+00   0.00000000000000E+00   0.00000000000000E+00  -2.57786229332737E-26   1.45053471985575E-20
      1.45053214199346E-20  -2.27484626449969E-15
      3.91840000000000E-03
      9.90204000000000E-01   9.90204000000000E-01   0.00000000000000E+00   0.00000000000000E+00   2.45332223168056E-36
     -2.45332223168056E-36   0.00000000000000E+00   8.32916543461308E-16   0.00000000000000E+00   0.00000000000000E+00
      0.00000000000000E+00   0.00000000000000E+00   2.64737755682782E-13  -3.17287766582713E-20   2.64737723954005E-13
      5.12465491496706E-15  -1.00000000000000E+00  -1.00000000000000E+00   0.00000000000000E+00   0.00000000000000E+00
     -5.02597132894475E-22  -2.64737795903256E-13  -2.64737796405853E-13  -3.68391494491104E-15   0.00000000000000E+00
      0.00000000000000E+00   0.00000000000000E+00   0.00000000000000E+00   1.17649073714584E-26   7.24518359949750E-20
      7.24518477598823E-20  -2.27365651351732E-15
      6.01555200000000E-03
      9.84961120000000E-01   9.84961120000000E-01   0.00000000000000E+00   0.00000000000000E+00   2.48073371110834E-36
     -2.48073371110834E-36   0.00000000000000E+00   8.27143001508436E-16   0.00000000000000E+00   0.00000000000000E+00
      0.00000000000000E+00   0.00000000000000E+00   2.64732458899674E-13   2.88010379096853E-21   2.64732461779778E-13
      5.12733089896749E-15  -1.00000000000000E+00  -1.00000000000000E+00   0.00000000000000E+00   0.00000000000000E+00
     -5.02597269022712E-22  -2.64732495828474E-13  -2.64732496331071E-13  -3.68234067294357E-15   0.00000000000000E+00
      0.00000000000000E+00   0.00000000000000E+00   0.00000000000000E+00   1.35147402639649E-26   3.45512799638835E-20
      3.45512934786238E-20  -2.27213322753237E-15
      8.69990656000000E-03
      9.78250233600000E-01   9.78250233600000E-01   0.00000000000000E+00   0.00000000000000E+00   2.48699009852785E-36
     -2.48699009852785E-36   0.00000000000000E+00   8.19760747472257E-16   0.00000000000000E+00   0.00000000000000E+00
      0.00000000000000E+00   0.00000000000000E+00   2.64725807095966E-13   1.75261170126850E-20   2.64725824622083E-13
      5.13074702906434E-15  -1.00000000000000E+00  -1.00000000000000E+00   0.00000000000000E+00   0.00000000000000E+00
     -5.02597450277025E-22  -2.64725844539083E-13  -2.64725845041681E-13  -3.68032501664789E-15   0.00000000000000E+00
      0.00000000000000E+00   0.00000000000000E+00   0.00000000000000E+00   2.30520126085352E-26   2.04195750904373E-20
      2.04195981424499E-20  -2.27018275988871E-15
      1.21358803968000E-02
      9.69660299008000E-01   9.69660299008000E-01   0.00000000000000E+00   0.00000000000000E+00   2.52169957207474E-36
     -2.52169957207474E-36   0.00000000000000E+00   8.10324411381623E-16   0.00000000000000E+00   0.00000000000000E+00
      0.00000000000000E+00   0.00000000000000E+00   2.64717497734589E-13  -8.93451023441786E-21   2.64717488800079E-13
      5.13510468423488E-15  -1.00000000000000E+00  -1.00000000000000E+00   0.00000000000000E+00   0.00000000000000E+00
     -5.02597667985636E-22  -2.64717534726504E-13  -2.64717535229101E-13  -3.67774401493490E-15   0.00000000000000E+00
      0.00000000000000E+00   0.00000000000000E+00   0.00000000000000E+00  -1.85310534397819E-26   4.64290416182747E-20
      4.64290230872212E-20  -2.26768508068162E-15
      1.65339269079040E-02
      9.58665182730240E-01   9.58665182730240E-01   0.00000000000000E+00   0.00000000000000E+00   2.54216192300355E-36
     -2.54216192300355E-36   0.00000000000000E+00   7.98267193361919E-16   0.00000000000000E+00   0.00000000000000E+00
      0.00000000000000E+00   0.00000000000000E+00   2.64707186628046E-13   1.35596666584225E-20   2.64707200187712E-13
      5.14065785628758E-15  -1.00000000000000E+00  -1.00000000000000E+00   0.00000000000000E+00   0.00000000000000E+00
     -5.02598000934896E-22  -2.64707214904094E-13  -2.64707215406692E-13  -3.67443876156723E-15   0.00000000000000E+00
      0.00000000000000E+00   0.00000000000000E+00   0.00000000000000E+00  -3.98000928703787E-27   1.52189833472205E-20
      1.52189793672112E-20  -2.26448628808227E-15
      2.21634264421171E-02
      9.44591433894707E-01   9.44591433894707E-01   0.00000000000000E+00   0.00000000000000E+00   2.49925650821510E-36
     -2.49925650821510E-36   0.00000000000000E+00   7.82868984495483E-16   0.00000000000000E+00   0.00000000000000E+00
      0.00000000000000E+00   0.00000000000000E+00   2.64694496377405E-13  -1.58867880344663E-21   2.64694494788727E-13
      5.14772544910240E-15  -1.00000000000000E+00  -1.00000000000000E+00   0.00000000000000E+00   0.00000000000000E+00
     -5.02598359851204E-22  -2.64694539751021E-13  -2.64694540253620E-13  -3.67020547273847E-15   0.00000000000000E+00
      0.00000000000000E+00   0.00000000000000E+00   0.00000000000000E+00  -1.00141044508780E-26   4.54649025935157E-20
      4.54648925794113E-20  -2.26038896085941E-15
      2.93691858459099E-02
      9.26577035385225E-01   9.26577035385225E-01   0.00000000000000E+00   0.00000000000000E+00   2.54918529486591E-36
     -2.54918529486591E-36   0.00000000000000E+00   7.63216932594410E-16   0.00000000000000E+00   0.00000000000000E+00
      0.00000000000000E+00   0.00000000000000E+00   2.64679031546728E-13  -1.78628888678905E-19   2.64678852917840E-13
      5.15670546201104E-15  -1.00000000000000E+00  -1.00000000000000E+00   0.00000000000000E+00   0.00000000000000E+00
     -5.02598868325094E-22  -2.64679071903412E-13  -2.64679072406011E-13  -3.66478268292256E-15   0.00000000000000E+00
      0.00000000000000E+00   0.00000000000000E+00   0.00000000000000E+00   8.98397242696690E-27   2.19488162868118E-19
      2.19488171852090E-19  -2.25513971168290E-15
      3.85925578827647E-02
      9.03518605293088E-01   9.03518605293088E-01   0.00000000000000E+00   0.00000000000000E+00   2.47933446929814E-36
     -2.47933446929814E-36   0.00000000000000E+00   7.38157199490333E-16   0.00000000000000E+00   0.00000000000000E+00
      0.00000000000000E+00   0.00000000000000E+00   2.64660398403357E-13  -1.36664821097307E-18   2.64659031755146E-13
      5.16809061595681E-15  -1.00000000000000E+00  -1.00000000000000E+00   0.00000000000000E+00   0.00000000000000E+00
     -5.02599432222393E-22  -2.64660430003361E-13  -2.64660430505960E-13  -3.65783471191698E-15   0.00000000000000E+00
      0.00000000000000E+00   0.00000000000000E+00   0.00000000000000E+00   1.40999416667012E-26   1.39875080061949E-18
      1.39875081471943E-18  -2.24841310353018E-15
      5.03984740899388E-02
      8.74003814775153E-01   8.74003814775153E-01   0.00000000000000E+00   0.00000000000000E+00   2.58837230300451E-36
     -2.58837230300451E-36   0.00000000000000E+00   7.06236783913545E-16   0.00000000000000E+00   0.00000000000000E+00
      0.00000000000000E+00   0.00000000000000E+00   2.64638226645567E-13  -1.00676983642485E-17   2.64628158947202E-13
      5.18248432976510E-15  -1.00000000000000E+00  -1.00000000000000E+00   0.00000000000000E+00   0.00000000000000E+00
     -5.02600197489053E-22  -2.64638220176875E-13  -2.64638220679475E-13  -3.64893027889047E-15   0.00000000000000E+00
      0.00000000000000E+00   0.00000000000000E+00   0.00000000000000E+00  -2.28942335279435E-26   1.00617322964911E-17
      1.00617322735969E-17  -2.23979083478817E-15
      6.55100468351217E-02
      8.36224882912196E-01   8.36224882912196E-01   0.00000000000000E+00   0.00000000000000E+00   2.51837393574641E-36
     -2.51837393574641E-36   0.00000000000000E+00   6.65634575688574E-16   0.00000000000000E+00   0.00000000000000E+00
      0.00000000000000E+00   0.00000000000000E+00   2.64612210721790E-13  -2.24004996363850E-20   2.64612188321290E-13
      5.20061498737650E-15  -1.00000000000000E+00  -1.00000000000000E+00   0.00000000000000E+00   0.00000000000000E+00
     -5.02601232559367E-22  -2.64612245861197E-13  -2.64612246363798E-13  -3.63751478936540E-15   0.00000000000000E+00
      0.00000000000000E+00   0.00000000000000E+00   0.00000000000000E+00   5.18078559944103E-27   5.80425029539048E-20
      5.80425081346904E-20  -2.22873477369968E-15
      8.45506284940521E-02
      7.88623428764870E-01   7.88623428764870E-01   0.00000000000000E+00   0.00000000000000E+00   2.47357603584510E-36
     -2.47357603584510E-36   0.00000000000000E+00   6.14883006604191E-16   0.00000000000000E+00   0.00000000000000E+00
      0.00000000000000E+00   0.00000000000000E+00   2.64582667730215E-13   2.20245893178515E-20   2.64582689754805E-13
      5.22299426907166E-15  -1.00000000000000E+00  -1.00000000000000E+00   0.00000000000000E+00   0.00000000000000E+00
     -5.02602599764553E-22  -2.64582707414728E-13  -2.64582707917331E-13  -3.62310337186368E-15   0.00000000000000E+00
      0.00000000000000E+00   0.00000000000000E+00   0.00000000000000E+00   9.77249048218519E-27   1.81625174430789E-20
      1.81625272155693E-20  -2.21477390381218E-15
      1.00000000000000E-01
      7.50000000000000E-01   7.50000000000000E-01   0.00000000000000E+00   0.00000000000000E+00   2.50351831794305E-36
     -2.50351831794305E-36   0.00000000000000E+00   5.74033217054953E-16   0.00000000000000E+00   0.00000000000000E+00
      0.00000000000000E+00   0.00000000000000E+00   2.64561031787605E-13  -3.86977150137411E-20   2.64560993089890E-13
      5.24077697339860E-15  -1.00000000000000E+00  -1.00000000000000E+00   0.00000000000000E+00   0.00000000000000E+00
     -5.02603651193432E-22  -2.64561066810066E-13  -2.64561067312670E-13  -3.61138776879656E-15   0.00000000000000E+00
      0.00000000000000E+00   0.00000000000000E+00   0.00000000000000E+00   3.61183701949564E-26   7.42227440598966E-20
      7.42227801782668E-20  -2.20342242165699E-15
      1.23991132890252E-01
      6.90022167774369E-01   6.90022167774369E-01   0.00000000000000E+00   0.00000000000000E+00   2.51858816150702E-36
     -2.51858816150702E-36   0.00000000000000E+00   5.11169536004484E-16   0.00000000000000E+00   0.00000000000000E+00
      0.00000000000000E+00   0.00000000000000E+00   2.64530970887533E-13   1.11985719900924E-20   2.64530982086105E-13
      5.26774200700420E-15  -1.00000000000000E+00  -1.00000000000000E+00   0.00000000000000E+00   0.00000000000000E+00
     -5.02605188531554E-22  -2.64531020586053E-13  -2.64531021088658E-13  -3.59315645603595E-15   0.00000000000000E+00
      0.00000000000000E+00   0.00000000000000E+00   0.00000000000000E+00  -1.67936513700773E-26   3.90025695764079E-20
      3.90025527827566E-20  -2.18575508697272E-15
      1.54219960331970E-01
      6.14450099170074E-01   6.14450099170074E-01   0.00000000000000E+00   0.00000000000000E+00   2.52707726989075E-36
     -2.52707726989075E-36   0.00000000000000E+00   4.32911885519008E-16   0.00000000000000E+00   0.00000000000000E+00
      0.00000000000000E+00   0.00000000000000E+00   2.64497800895708E-13   9.12690855535510E-21   2.64497810022616E-13
      5.30064051563381E-15  -1.00000000000000E+00  -1.00000000000000E+00   0.00000000000000E+00   0.00000000000000E+00
     -5.02607299996711E-22  -2.64497852614986E-13  -2.64497853117594E-13  -3.57012152620873E-15   0.00000000000000E+00
      0.00000000000000E+00   0.00000000000000E+00   0.00000000000000E+00  -3.58909427429256E-27   4.30949807074395E-20
      4.30949771183452E-20  -2.16343087494408E-15
      1.92308282908535E-01
      5.19229292728663E-01   5.19229292728663E-01   0.00000000000000E+00   0.00000000000000E+00   2.51962493707616E-36
     -2.51962493707616E-36   0.00000000000000E+00   3.35717871178736E-16   0.00000000000000E+00   0.00000000000000E+00
      0.00000000000000E+00   0.00000000000000E+00   2.64460686956534E-13  -2.16529188062782E-20   2.64460665303615E-13
      5.34049950429562E-15  -1.00000000000000E+00  -1.00000000000000E+00   0.00000000000000E+00   0.00000000000000E+00
     -5.02609878340840E-22  -2.64460745188970E-13  -2.64460745691580E-13  -3.54100303142896E-15   0.00000000000000E+00
      0.00000000000000E+00   0.00000000000000E+00   0.00000000000000E+00  -5.49705240093891E-27   8.03879703680652E-20
      8.03879648710128E-20  -2.13521434404540E-15
      2.00000000000000E-01
      5.00000000000000E-01   5.00000000000000E-01   0.00000000000000E+00   0.00000000000000E+00   2.67617661564983E-36
     -2.67617661564983E-36   0.00000000000000E+00   3.16269335896744E-16   0.00000000000000E+00   0.00000000000000E+00
      0.00000000000000E+00   0.00000000000000E+00   2.64453566400593E-13  -3.23740787530893E-17   2.64421192321840E-13
      5.34834704915773E-15  -1.00000000000000E+00  -1.00000000000000E+00   0.00000000000000E+00   0.00000000000000E+00
     -5.02610247358127E-22  -2.64453481415106E-13  -2.64453481917716E-13  -3.53511064183978E-15   0.00000000000000E+00
      0.00000000000000E+00   0.00000000000000E+00   0.00000000000000E+00  -4.07896262497155E-26   3.22895959172503E-17
      3.22895958764607E-17  -2.12950574321469E-15
      2.47991286446471E-01
      3.80021783883822E-01   3.80021783883822E-01   0.00000000000000E+00   0.00000000000000E+00   2.51232453192270E-36
     -2.51232453192270E-36   0.00000000000000E+00   1.96175213865798E-16   0.00000000000000E+00   0.00000000000000E+00
      0.00000000000000E+00   0.00000000000000E+00   2.64410296962536E-13  -2.58688409047777E-20   2.64410271093695E-13
      5.39590874515574E-15  -1.00000000000000E+00  -1.00000000000000E+00   0.00000000000000E+00   0.00000000000000E+00
     -5.02613621632372E-22  -2.64410405374262E-13  -2.64410405876876E-13  -3.49826087984042E-15   0.00000000000000E+00
      0.00000000000000E+00   0.00000000000000E+00   0.00000000000000E+00   2.03828465411528E-26   1.34783160538730E-19
      1.34783180921577E-19  -2.09382307918111E-15
      3.00000000000000E-01
      2.50000000000000E-01   2.50000000000000E-01   0.00000000000000E+00   0.00000000000000E+00   2.54346253067326E-36
     -2.54346253067326E-36   0.00000000000000E+00   6.82299072429349E-17   0.00000000000000E+00   0.00000000000000E+00
      0.00000000000000E+00   0.00000000000000E+00   2.64362993616805E-13  -1.04758141693822E-20   2.64362983140991E-13
      5.44500655383151E-15  -1.00000000000000E+00  -1.00000000000000E+00   0.00000000000000E+00   0.00000000000000E+00
     -5.02617110056051E-22  -2.64363323915841E-13  -2.64363324418458E-13  -3.45817503812490E-15   0.00000000000000E+00
      0.00000000000000E+00   0.00000000000000E+00   0.00000000000000E+00  -2.60369494254885E-26   3.41277493938472E-19
      3.41277467901523E-19  -2.05506142294955E-15
      3.59509195193625E-01
      1.01227012015939E-01   1.01227012015939E-01   0.00000000000000E+00   0.00000000000000E+00   2.54440427861207E-36
     -2.54440427861207E-36   0.00000000000000E+00  -7.57815061746932E-17   0.00000000000000E+00   0.00000000000000E+00
      0.00000000000000E+00   0.00000000000000E+00   2.64300790561811E-13  -8.59885629811444E-20   2.64300704573248E-13
      5.49858276491006E-15  -1.00000000000000E+00  -1.00000000000000E+00   0.00000000000000E+00   0.00000000000000E+00
     -5.02621163783698E-22  -2.64302711278196E-13  -2.64302711780817E-13  -3.41214097871137E-15   0.00000000000000E+00
      0.00000000000000E+00   0.00000000000000E+00   0.00000000000000E+00   1.89429352696155E-26   2.00720754986675E-18
      2.00720756880969E-18  -2.01066028002399E-15
      4.00000000000000E-01
      0.00000000000000E+00   0.00000000000000E+00   0.00000000000000E+00   0.00000000000000E+00   2.48599953217982E-36
     -2.48599953217982E-36   0.00000000000000E+00  -1.72523597822249E-16   0.00000000000000E+00   0.00000000000000E+00
      0.00000000000000E+00   0.00000000000000E+00   2.64243185607288E-13  -4.26777063901484E-19   2.64242758830224E-13
      5.53371420591658E-15  -1.00000000000000E+00  -1.00000000000000E+00   0.00000000000000E+00   0.00000000000000E+00
     -5.02623900991314E-22  -2.64250804864216E-13  -2.64250805366840E-13  -3.38073050160806E-15   0.00000000000000E+00
      0.00000000000000E+00   0.00000000000000E+00   0.00000000000000E+00   3.54556286173777E-27   8.04653661138717E-18
      8.04653661493273E-18  -1.98046010648625E-15
      4.73791402040094E-01
     -1.84478505100236E-01  -1.84478505100236E-01   0.00000000000000E+00   0.00000000000000E+00   2.51842318640624E-36
     -2.51842318640624E-36   0.00000000000000E+00  -3.46592214775038E-16   0.00000000000000E+00   0.00000000000000E+00
      0.00000000000000E+00   0.00000000000000E+00   2.64068194036843E-13   1.11904686993491E-19   2.64068305941530E-13
      5.59547097438667E-15  -1.00000000000000E+00  -1.00000000000000E+00   0.00000000000000E+00   0.00000000000000E+00
     -5.02628976491906E-22  -2.64186079267182E-13  -2.64186079769811E-13  -3.32333208734935E-15   0.00000000000000E+00
      0.00000000000000E+00   0.00000000000000E+00   0.00000000000000E+00  -1.50966457879313E-26   1.17773828296475E-16
      1.17773828281379E-16  -1.92554667226229E-15
      5.00000000000000E-01
     -2.50000000000000E-01  -2.50000000000000E-01   0.00000000000000E+00   0.00000000000000E+00   2.53113745735263E-36
     -2.53113745735263E-36   0.00000000000000E+00  -4.07789110397074E-16   0.00000000000000E+00   0.00000000000000E+00
      0.00000000000000E+00   0.00000000000000E+00   2.63991784923364E-13  -3.11456966082242E-19   2.63991473466398E-13
      5.61680174061462E-15  -1.00000000000000E+00  -1.00000000000000E+00   0.00000000000000E+00   0.00000000000000E+00
     -5.02630737677124E-22  -2.64321550348854E-13  -2.64321550851485E-13  -3.30290436443886E-15   0.00000000000000E+00
      0.00000000000000E+00   0.00000000000000E+00   0.00000000000000E+00  -1.26425509088561E-26   3.30077385099370E-16
      3.30077385086728E-16  -1.90610826577868E-15
      5.90025510488915E-01
     -4.75063776222288E-01  -4.75063776222288E-01   0.00000000000000E+00   0.00000000000000E+00   2.54309849977395E-36
     -2.54309849977395E-36   0.00000000000000E+00  -6.15795027645936E-16   0.00000000000000E+00   0.00000000000000E+00
      0.00000000000000E+00   0.00000000000000E+00   2.63818785717127E-13   7.28257263558922E-20   2.63818858542854E-13
      5.68815273067593E-15  -1.00000000000000E+00  -1.00000000000000E+00   0.00000000000000E+00   0.00000000000000E+00
     -5.02636880775243E-22  -2.77344761637985E-13  -2.77344762140622E-13  -3.23260682607183E-15   0.00000000000000E+00
      0.00000000000000E+00   0.00000000000000E+00   0.00000000000000E+00  -2.50767110854487E-26   1.35259035977931E-14
      1.35259035977681E-14  -1.83975087695817E-15
      6.00000000000000E-01
     -5.00000000000000E-01  -5.00000000000000E-01   0.00000000000000E+00   0.00000000000000E+00   2.52742698909866E-36
     -2.52742698909866E-36   0.00000000000000E+00  -6.38647997383386E-16   0.00000000000000E+00   0.00000000000000E+00
      0.00000000000000E+00   0.00000000000000E+00   2.63810785473780E-13  -3.43153619254500E-19   2.63810442320161E-13
      5.69590416045723E-15  -1.00000000000000E+00  -1.00000000000000E+00   0.00000000000000E+00   0.00000000000000E+00
     -5.02637557527969E-22  -2.84535986209646E-13  -2.84535986712283E-13  -3.22480814980834E-15   0.00000000000000E+00
      0.00000000000000E+00   0.00000000000000E+00   0.00000000000000E+00  -9.36816708606941E-27   2.07255443921320E-14
      2.07255443921227E-14  -1.83244801326552E-15
      6.50000000000000E-01
     -6.25000000000000E-01  -6.25000000000000E-01   0.00000000000000E+00   0.00000000000000E+00   4.03356651441038E-36
     -4.03356651441038E-36   0.00000000000000E+00  -7.52679436812618E-16   0.00000000000000E+00   0.00000000000000E+00
      0.00000000000000E+00   0.00000000000000E+00   2.63801332403949E-13   4.38866482544900E-19   2.63801771270431E-13
      5.73439797707596E-15  -1.00000000000000E+00  -1.00000000000000E+00   0.00000000000000E+00   0.00000000000000E+00
     -5.02640961422740E-22  -4.46908774223748E-13  -4.46908774726389E-13  -3.18569366924214E-15   0.00000000000000E+00
      0.00000000000000E+00   0.00000000000000E+00   0.00000000000000E+00   1.21225782272792E-26   1.83107003455946E-13
      1.83107003455958E-13  -1.79602487102120E-15
      7.00000000000000E-01
     -7.50000000000000E-01  -7.50000000000000E-01   0.00000000000000E+00   0.00000000000000E+00   4.02358307083877E-36
     -4.02358307083877E-36   0.00000000000000E+00  -8.65899845954094E-16   0.00000000000000E+00   0.00000000000000E+00
      0.00000000000000E+00   0.00000000000000E+00   2.63905322734361E-13   9.72312343422593E-19   2.63906295046704E-13
      5.77241085307986E-15  -1.00000000000000E+00  -1.00000000000000E+00   0.00000000000000E+00   0.00000000000000E+00
     -5.02644389298485E-22  -1.98006681074320E-12  -1.98006681124584E-12  -3.14655465797832E-15   0.00000000000000E+00
      0.00000000000000E+00   0.00000000000000E+00   0.00000000000000E+00   3.37262417529199E-26   1.71616051619911E-12
      1.71616051619914E-12  -1.75995634914744E-15
      7.61000000000000E-01
     -9.02500000000000E-01  -9.02500000000000E-01   0.00000000000000E+00   0.00000000000000E+00   2.51601397745621E-36
     -2.51601397745621E-36   0.00000000000000E+00  -1.00306313001706E-15   0.00000000000000E+00   0.00000000000000E+00
      0.00000000000000E+00   0.00000000000000E+00   2.64471667760708E-13  -8.64682944769223E-20   2.64471581292414E-13
      5.81839583339829E-15  -1.00000000000000E+00  -1.00000000000000E+00   0.00000000000000E+00   0.00000000000000E+00
     -5.02648575925789E-22  -2.83980974455672E-11  -2.83980974460699E-11  -3.09879534499600E-15   0.00000000000000E+00
      0.00000000000000E+00   0.00000000000000E+00   0.00000000000000E+00   2.67678476988698E-26   2.81336258647774E-11
      2.81336258647774E-11  -1.71653735838523E-15
      8.00000000000000E-01
     -1.00000000000000E+00  -1.00000000000000E+00   0.00000000000000E+00   0.00000000000000E+00   2.52885132866422E-36
     -2.52885132866422E-36   0.00000000000000E+00  -1.09028489659128E-15   0.00000000000000E+00   0.00000000000000E+00
      0.00000000000000E+00   0.00000000000000E+00   2.65103185818441E-13  -2.42699304235520E-19   2.65102943119137E-13
      5.84773938047287E-15  -1.00000000000000E+00  -1.00000000000000E+00   0.00000000000000E+00   0.00000000000000E+00
     -5.02651254262530E-22  -1.73773999648805E-10  -1.73773999649307E-10  -3.06826911697700E-15   0.00000000000000E+00
      0.00000000000000E+00   0.00000000000000E+00   0.00000000000000E+00   2.61335079320715E-26   1.73508896706188E-10
      1.73508896706188E-10  -1.68918536690460E-15
      8.75640000000000E-01
     -1.18910000000000E+00  -1.18910000000000E+00   0.00000000000000E+00   0.00000000000000E+00   2.49869964853408E-36
     -2.49869964853408E-36   0.00000000000000E+00  -1.25876311784725E-15   0.00000000000000E+00   0.00000000000000E+00
      0.00000000000000E+00   0.00000000000000E+00   2.66308847653427E-13  -6.03075434995241E-20   2.66308787345884E-13
      5.90520953603370E-15  -1.00000000000000E+00  -1.00000000000000E+00   0.00000000000000E+00   0.00000000000000E+00
     -5.02656917284095E-22  -6.15913720639670E-09  -6.15913720639720E-09  -3.00912645417827E-15   0.00000000000000E+00
      0.00000000000000E+00   0.00000000000000E+00   0.00000000000000E+00   1.30449430930998E-26   6.15887089760994E-09
      6.15887089760994E-09  -1.63731996400820E-15
      9.00000000000000E-01
     -1.25000000000000E+00  -1.25000000000000E+00   0.00000000000000E+00   0.00000000000000E+00   2.58544350883979E-36
     -2.58544350883979E-36   0.00000000000000E+00  -1.31300495947956E-15   0.00000000000000E+00   0.00000000000000E+00
      0.00000000000000E+00   0.00000000000000E+00   2.66591321151550E-13  -3.93941220669256E-19   2.66590927210330E-13
      5.92415571195213E-15  -1.00000000000000E+00  -1.00000000000000E+00   0.00000000000000E+00   0.00000000000000E+00
     -5.02659596757115E-22  -1.93936637418770E-08  -1.93936637418775E-08  -2.99011018259190E-15   0.00000000000000E+00
      0.00000000000000E+00   0.00000000000000E+00   0.00000000000000E+00  -2.56877637419181E-26   1.93933971509504E-08
      1.93933971509504E-08  -1.62104056988071E-15
      9.90768000000000E-01
     -1.47692000000000E+00  -1.47692000000000E+00   0.00000000000000E+00   0.00000000000000E+00   2.57266430066259E-36
     -2.57266430066259E-36   0.00000000000000E+00  -1.51897936992977E-15   0.00000000000000E+00   0.00000000000000E+00
      0.00000000000000E+00   0.00000000000000E+00   2.67258317980882E-13  -1.39427358037730E-18   2.67256923707302E-13
      6.00146868598400E-15  -1.00000000000000E+00  -1.00000000000000E+00   0.00000000000000E+00   0.00000000000000E+00
     -5.02735883568271E-22  -9.20403128278288E-07  -9.20403128278289E-07  -2.91962102457502E-15   0.00000000000000E+00
      0.00000000000000E+00   0.00000000000000E+00   0.00000000000000E+00   7.04356217672797E-26   9.20402861021369E-07
      9.20402861021369E-07  -1.56286829147921E-15
      1.00000000000000E+00
     -1.50000000000000E+00  -1.50000000000000E+00   0.00000000000000E+00   0.00000000000000E+00   2.55945062907147E-36
     -2.55945062907147E-36   0.00000000000000E+00  -1.54071650712927E-15   0.00000000000000E+00   0.00000000000000E+00
      0.00000000000000E+00   0.00000000000000E+00   2.67437396060052E-13   7.45887995990382E-19   2.67438141948048E-13
      6.01041808053668E-15  -1.00000000000000E+00  -1.00000000000000E+00   0.00000000000000E+00   0.00000000000000E+00
     -5.02762125123407E-22  -1.24907823432687E-06  -1.24907823432687E-06  -2.91252050347837E-15   0.00000000000000E+00
      0.00000000000000E+00   0.00000000000000E+00   0.00000000000000E+00   8.57176262949453E-26   1.24907796688873E-06
      1.24907796688873E-06  -1.55718106992905E-15
}
