DF-ISE text

Info {
  version   = 1.0
  type      = xyplot
  datasets  = [
    "time"
    "gate OuterVoltage" "gate InnerVoltage" "gate QuasiFermiPotential" "gate DisplacementCurrent" "gate eCurrent"
    "gate hCurrent" "gate TotalCurrent" "gate Charge" "substrate OuterVoltage" "substrate InnerVoltage"
    "substrate QuasiFermiPotential" "substrate DisplacementCurrent" "substrate eCurrent" "substrate hCurrent" "substrate TotalCurrent"
    "substrate Charge" "drain OuterVoltage" "drain InnerVoltage" "drain QuasiFermiPotential" "drain DisplacementCurrent"
    "drain eCurrent" "drain hCurrent" "drain TotalCurrent" "drain Charge" "source OuterVoltage"
    "source InnerVoltage" "source QuasiFermiPotential" "source DisplacementCurrent" "source eCurrent" "source hCurrent"
    "source TotalCurrent" "source Charge" ]
  functions = [
    Time
    OuterVoltage InnerVoltage QuasiFermiPotential DisplacementCurrent eCurrent
    hCurrent TotalCurrent Charge OuterVoltage InnerVoltage
    QuasiFermiPotential DisplacementCurrent eCurrent hCurrent TotalCurrent
    Charge OuterVoltage InnerVoltage QuasiFermiPotential DisplacementCurrent
    eCurrent hCurrent TotalCurrent Charge OuterVoltage
    InnerVoltage QuasiFermiPotential DisplacementCurrent eCurrent hCurrent
    TotalCurrent Charge ]
}

Data {
      0.00000000000000E+00
      1.00000000000000E+00   1.00000000000000E+00   0.00000000000000E+00   0.00000000000000E+00   2.45553829892634E-37
     -2.45553829892634E-37   0.00000000000000E+00   7.97369118121480E-16   0.00000000000000E+00   0.00000000000000E+00
      0.00000000000000E+00   0.00000000000000E+00   7.83905273486065E-13   2.01741417616581E-18   7.83907290900241E-13
      5.88175754915242E-15  -1.00000000000000E+00  -1.00000000000000E+00   0.00000000000000E+00   0.00000000000000E+00
     -5.92300154971952E-22  -1.98074478958021E-03  -1.98074478958021E-03  -4.22232807375678E-15   0.00000000000000E+00
      0.00000000000000E+00   0.00000000000000E+00   0.00000000000000E+00   1.48835046481698E-22   1.98074478879631E-03
      1.98074478879631E-03  -2.45679859351712E-15
      1.00000000000000E-03
      9.97500000000000E-01   9.97500000000000E-01   0.00000000000000E+00   0.00000000000000E+00   3.20153242426405E-35
     -3.20153242426405E-35   0.00000000000000E+00   7.96122839674031E-16   0.00000000000000E+00   0.00000000000000E+00
      0.00000000000000E+00   0.00000000000000E+00   7.83914376969575E-13  -1.77478819715449E-13   6.06435557254126E-13
      5.88180254796092E-15  -1.00000000000000E+00  -1.00000000000000E+00   0.00000000000000E+00   0.00000000000000E+00
     -5.92345099854765E-22  -1.98142730647870E-03  -1.98142730647870E-03  -4.22170151233380E-15   0.00000000000000E+00
      0.00000000000000E+00   0.00000000000000E+00   0.00000000000000E+00   1.48907677621289E-22   1.98142730587227E-03
      1.98142730587227E-03  -2.45622387530115E-15
      2.30000000000000E-03
      9.94250000000000E-01   9.94250000000000E-01   0.00000000000000E+00   0.00000000000000E+00   6.67642484500257E-37
     -6.67642484500257E-37   0.00000000000000E+00   7.94502726026878E-16   0.00000000000000E+00   0.00000000000000E+00
      0.00000000000000E+00   0.00000000000000E+00   7.83926202233715E-13   1.16647382649191E-13   9.00573584882906E-13
      5.88186099157045E-15  -1.00000000000000E+00  -1.00000000000000E+00   0.00000000000000E+00   0.00000000000000E+00
     -5.92422534639945E-22  -1.98231366271140E-03  -1.98231366271140E-03  -4.22088698817342E-15   0.00000000000000E+00
      0.00000000000000E+00   0.00000000000000E+00   0.00000000000000E+00   1.48960034127731E-22   1.98231366181083E-03
      1.98231366181083E-03  -2.45547672942392E-15
      3.99000000000000E-03
      9.90025000000000E-01   9.90025000000000E-01   0.00000000000000E+00   0.00000000000000E+00   1.50208932288010E-36
     -1.50208932288010E-36   0.00000000000000E+00   7.92396630019223E-16   0.00000000000000E+00   0.00000000000000E+00
      0.00000000000000E+00   0.00000000000000E+00   7.83941578463622E-13  -3.94916199478762E-15   7.79992416468834E-13
      5.88193699934531E-15  -1.00000000000000E+00  -1.00000000000000E+00   0.00000000000000E+00   0.00000000000000E+00
     -5.92512449226683E-22  -1.98346640351711E-03  -1.98346640351711E-03  -4.21982812754917E-15   0.00000000000000E+00
      0.00000000000000E+00   0.00000000000000E+00   0.00000000000000E+00   1.49056282488048E-22   1.98346640273712E-03
      1.98346640273712E-03  -2.45450550181537E-15
      6.18700000000000E-03
      9.84532500000000E-01   9.84532500000000E-01   0.00000000000000E+00   0.00000000000000E+00   3.85111806709129E-36
     -3.85111806709129E-36   0.00000000000000E+00   7.89658792863205E-16   0.00000000000000E+00   0.00000000000000E+00
      0.00000000000000E+00   0.00000000000000E+00   7.83961567110749E-13  -2.07259048926459E-14   7.63235662218103E-13
      5.88203589232271E-15  -1.00000000000000E+00  -1.00000000000000E+00   0.00000000000000E+00   0.00000000000000E+00
     -5.92629332169091E-22  -1.98496526879176E-03  -1.98496526879176E-03  -4.21845168131630E-15   0.00000000000000E+00
      0.00000000000000E+00   0.00000000000000E+00   0.00000000000000E+00   1.49157517879927E-22   1.98496526802853E-03
      1.98496526802853E-03  -2.45324300386963E-15
      9.04310000000000E-03
      9.77392250000000E-01   9.77392250000000E-01   0.00000000000000E+00   0.00000000000000E+00   1.05843744026499E-35
     -1.05843744026499E-35   0.00000000000000E+00   7.86099758300830E-16   0.00000000000000E+00   0.00000000000000E+00
      0.00000000000000E+00   0.00000000000000E+00   7.83987556750851E-13  -6.13111008927128E-14   7.22676455858138E-13
      5.88216453379064E-15  -1.00000000000000E+00  -1.00000000000000E+00   0.00000000000000E+00   0.00000000000000E+00
     -5.92779106551929E-22  -1.98691465385913E-03  -1.98691465385913E-03  -4.21666237334051E-15   0.00000000000000E+00
      0.00000000000000E+00   0.00000000000000E+00   0.00000000000000E+00   1.49320239429737E-22   1.98691465313645E-03
      1.98691465313645E-03  -2.45160191875095E-15
      1.27560300000000E-02
      9.68109925000000E-01   9.68109925000000E-01   0.00000000000000E+00   0.00000000000000E+00   2.99296170416645E-35
     -2.99296170416645E-35   0.00000000000000E+00   7.81473277430016E-16   0.00000000000000E+00   0.00000000000000E+00
      0.00000000000000E+00   0.00000000000000E+00   7.84021351191541E-13  -1.82741674048740E-13   6.01279677142801E-13
      5.88233188284368E-15  -1.00000000000000E+00  -1.00000000000000E+00   0.00000000000000E+00   0.00000000000000E+00
     -5.92970811232183E-22  -1.98945030883751E-03  -1.98945030883751E-03  -4.21433638201119E-15   0.00000000000000E+00
      0.00000000000000E+00   0.00000000000000E+00   0.00000000000000E+00   1.49521236083625E-22   1.98945030823623E-03
      1.98945030823623E-03  -2.44946877826250E-15
      1.75828390000000E-02
      9.56042902500000E-01   9.56042902500000E-01   0.00000000000000E+00   0.00000000000000E+00   8.55602315897066E-35
     -8.55602315897066E-35   0.00000000000000E+00   7.75459303774113E-16   0.00000000000000E+00   0.00000000000000E+00
      0.00000000000000E+00   0.00000000000000E+00   7.84065295163377E-13  -5.29143907116619E-13   2.54921388046759E-13
      5.88254962956888E-15  -1.00000000000000E+00  -1.00000000000000E+00   0.00000000000000E+00   0.00000000000000E+00
     -5.93211563041718E-22  -1.99274892192765E-03  -1.99274892192765E-03  -4.21131278544547E-15   0.00000000000000E+00
      0.00000000000000E+00   0.00000000000000E+00   0.00000000000000E+00   1.49806438095114E-22   1.99274892167273E-03
      1.99274892167273E-03  -2.44669614789752E-15
      2.38576907000000E-02
      9.40355773250000E-01   9.40355773250000E-01   0.00000000000000E+00   0.00000000000000E+00   2.46167823725269E-34
     -2.46167823725269E-34   0.00000000000000E+00   7.67641910922642E-16   0.00000000000000E+00   0.00000000000000E+00
      0.00000000000000E+00   0.00000000000000E+00   7.84122438482460E-13  -1.51943438241034E-12  -7.35311943927879E-13
      5.88283302456810E-15  -1.00000000000000E+00  -1.00000000000000E+00   0.00000000000000E+00   0.00000000000000E+00
     -5.93500085433083E-22  -1.99704070618196E-03  -1.99704070618196E-03  -4.20738244668718E-15   0.00000000000000E+00
      0.00000000000000E+00   0.00000000000000E+00   0.00000000000000E+00   1.50242101501444E-22   1.99704070691728E-03
      1.99704070691728E-03  -2.44309248880356E-15
      3.20149979100000E-02
      9.19962505225000E-01   9.19962505225000E-01   0.00000000000000E+00   0.00000000000000E+00   2.42037745623590E-37
     -2.42037745623590E-37   0.00000000000000E+00   7.57480626659935E-16   0.00000000000000E+00   0.00000000000000E+00
      0.00000000000000E+00   0.00000000000000E+00   7.84196747828557E-13  -5.15121631048708E-19   7.84196232706925E-13
      5.88320198399317E-15  -1.00000000000000E+00  -1.00000000000000E+00   0.00000000000000E+00   0.00000000000000E+00
     -5.94010378703203E-22  -2.00262578933033E-03  -2.00262578933033E-03  -4.20227359704418E-15   0.00000000000000E+00
      0.00000000000000E+00   0.00000000000000E+00   0.00000000000000E+00   1.50495258781481E-22   2.00262578854614E-03
      2.00262578854614E-03  -2.43840901360892E-15
      4.24563511388000E-02
      8.93859122153000E-01   8.93859122153000E-01   0.00000000000000E+00   0.00000000000000E+00   2.52604890145083E-37
     -2.52604890145083E-37   0.00000000000000E+00   7.44476429664095E-16   0.00000000000000E+00   0.00000000000000E+00
      0.00000000000000E+00   0.00000000000000E+00   7.84291916614925E-13   1.63768767239002E-18   7.84293554302598E-13
      5.88367517319448E-15  -1.00000000000000E+00  -1.00000000000000E+00   0.00000000000000E+00   0.00000000000000E+00
     -5.94569636975011E-22  -2.00978361443153E-03  -2.00978361443153E-03  -4.19573527478610E-15   0.00000000000000E+00
      0.00000000000000E+00   0.00000000000000E+00   0.00000000000000E+00   1.51033042603314E-22   2.00978361364724E-03
      2.00978361364724E-03  -2.43241632807247E-15
      5.58212832716640E-02
      8.60446791820840E-01   8.60446791820840E-01   0.00000000000000E+00   0.00000000000000E+00   2.52190960107918E-37
     -2.52190960107918E-37   0.00000000000000E+00   7.27834870677834E-16   0.00000000000000E+00   0.00000000000000E+00
      0.00000000000000E+00   0.00000000000000E+00   7.84413859776240E-13   2.38459523675780E-18   7.84416244371477E-13
      5.88428241854640E-15  -1.00000000000000E+00  -1.00000000000000E+00   0.00000000000000E+00   0.00000000000000E+00
     -5.95286738477193E-22  -2.01895927774668E-03  -2.01895927774668E-03  -4.18736793191205E-15   0.00000000000000E+00
      0.00000000000000E+00   0.00000000000000E+00   0.00000000000000E+00   1.51736520819292E-22   2.01895927696226E-03
      2.01895927696226E-03  -2.42474935731219E-15
      7.29283964017299E-02
      8.17679008995675E-01   8.17679008995675E-01   0.00000000000000E+00   0.00000000000000E+00   2.47438173457052E-37
     -2.47438173457052E-37   0.00000000000000E+00   7.06540051707932E-16   0.00000000000000E+00   0.00000000000000E+00
      0.00000000000000E+00   0.00000000000000E+00   7.84570033837918E-13   8.05333553051954E-18   7.84578087173449E-13
      5.88506217147955E-15  -1.00000000000000E+00  -1.00000000000000E+00   0.00000000000000E+00   0.00000000000000E+00
     -5.96206503246649E-22  -2.03072694117933E-03  -2.03072694117933E-03  -4.17666082305959E-15   0.00000000000000E+00
      0.00000000000000E+00   0.00000000000000E+00   0.00000000000000E+00   1.52618485488607E-22   2.03072694039475E-03
      2.03072694039475E-03  -2.41494140012789E-15
      9.48255012082143E-02
      7.62936246979464E-01   7.62936246979464E-01   0.00000000000000E+00   0.00000000000000E+00   2.51817629445515E-37
     -2.51817629445515E-37   0.00000000000000E+00   6.79293159678343E-16   0.00000000000000E+00   0.00000000000000E+00
      0.00000000000000E+00   0.00000000000000E+00   7.84769933911240E-13   4.55122944129705E-17   7.84815446205653E-13
      5.88606345818504E-15  -1.00000000000000E+00  -1.00000000000000E+00   0.00000000000000E+00   0.00000000000000E+00
     -5.97386228932969E-22  -2.04582001718060E-03  -2.04582001718060E-03  -4.16295974033003E-15   0.00000000000000E+00
      0.00000000000000E+00   0.00000000000000E+00   0.00000000000000E+00   1.53780809917884E-22   2.04582001639578E-03
      2.04582001639578E-03  -2.40239687753335E-15
      1.00000000000000E-01
      7.50000000000000E-01   7.50000000000000E-01   0.00000000000000E+00   0.00000000000000E+00   2.42927289621130E-37
     -2.42927289621130E-37   0.00000000000000E+00   6.72856269215854E-16   0.00000000000000E+00   0.00000000000000E+00
      0.00000000000000E+00   0.00000000000000E+00   7.84817180309365E-13   3.52485434174851E-18   7.84820705163707E-13
      5.88630066944934E-15  -1.00000000000000E+00  -1.00000000000000E+00   0.00000000000000E+00   0.00000000000000E+00
     -5.97665538033931E-22  -2.04939216127784E-03  -2.04939216127784E-03  -4.15972286516985E-15   0.00000000000000E+00
      0.00000000000000E+00   0.00000000000000E+00   0.00000000000000E+00   1.54048184027937E-22   2.04939216049303E-03
      2.04939216049303E-03  -2.39943407349534E-15
      1.28028294152300E-01
      6.79929264619250E-01   6.79929264619250E-01   0.00000000000000E+00   0.00000000000000E+00   3.48703439460711E-37
     -3.48703439460711E-37   0.00000000000000E+00   6.38002616223797E-16   0.00000000000000E+00   0.00000000000000E+00
      0.00000000000000E+00   0.00000000000000E+00   7.85073157267002E-13   9.57548939047640E-16   7.86030706206050E-13
      5.88758896568920E-15  -1.00000000000000E+00  -1.00000000000000E+00   0.00000000000000E+00   0.00000000000000E+00
     -5.99180198974425E-22  -2.06876760109963E-03  -2.06876760109963E-03  -4.14219490829452E-15   0.00000000000000E+00
      0.00000000000000E+00   0.00000000000000E+00   0.00000000000000E+00   1.55521024620817E-22   2.06876760031360E-03
      2.06876760031360E-03  -2.38339667361847E-15
      1.63904510667244E-01
      5.90238723331890E-01   5.90238723331890E-01   0.00000000000000E+00   0.00000000000000E+00   2.74986307049391E-37
     -2.74986307049391E-37   0.00000000000000E+00   5.93423240816714E-16   0.00000000000000E+00   0.00000000000000E+00
      0.00000000000000E+00   0.00000000000000E+00   7.85401171524053E-13   3.19025259005607E-15   7.88591424114109E-13
      5.88924787185458E-15  -1.00000000000000E+00  -1.00000000000000E+00   0.00000000000000E+00   0.00000000000000E+00
     -6.01125770060041E-22  -2.09365506350531E-03  -2.09365506350531E-03  -4.11977503477480E-15   0.00000000000000E+00
      0.00000000000000E+00   0.00000000000000E+00   0.00000000000000E+00   1.57407884376208E-22   2.09365506271672E-03
      2.09365506271672E-03  -2.36289607789649E-15
      2.00000000000000E-01
      5.00000000000000E-01   5.00000000000000E-01   0.00000000000000E+00   0.00000000000000E+00  -5.08025542365348E-37
      5.08025542365348E-37   0.00000000000000E+00   5.48612258250733E-16   0.00000000000000E+00   0.00000000000000E+00
      0.00000000000000E+00   0.00000000000000E+00   7.85731732957947E-13   4.76468838225109E-15   7.90496421340198E-13
      5.89092643688139E-15  -1.00000000000000E+00  -1.00000000000000E+00   0.00000000000000E+00   0.00000000000000E+00
     -6.03091984804471E-22  -2.11880525202051E-03  -2.11880525202051E-03  -4.09723652701426E-15   0.00000000000000E+00
      0.00000000000000E+00   0.00000000000000E+00   0.00000000000000E+00   1.59305271217780E-22   2.11880525123002E-03
      2.11880525123002E-03  -2.34230216811787E-15
      2.45921557139128E-01
      3.85196107152179E-01   3.85196107152179E-01   0.00000000000000E+00   0.00000000000000E+00  -1.36956073230289E-35
      1.36956073230289E-35   0.00000000000000E+00   4.91663486470714E-16   0.00000000000000E+00   0.00000000000000E+00
      0.00000000000000E+00   0.00000000000000E+00   7.86148747489092E-13   1.58120189063547E-14   8.01960766395447E-13
      5.89308361712504E-15  -1.00000000000000E+00  -1.00000000000000E+00   0.00000000000000E+00   0.00000000000000E+00
     -6.05579105075719E-22  -2.15061876777330E-03  -2.15061876777330E-03  -4.06859610662523E-15   0.00000000000000E+00
      0.00000000000000E+00   0.00000000000000E+00   0.00000000000000E+00   1.61741430324700E-22   2.15061876697135E-03
      2.15061876697135E-03  -2.31615099697052E-15
      3.00000000000000E-01
      2.50000000000000E-01   2.50000000000000E-01   0.00000000000000E+00   0.00000000000000E+00  -1.85132214191925E-34
      1.85132214191925E-34   0.00000000000000E+00   4.24701605398101E-16   0.00000000000000E+00   0.00000000000000E+00
      0.00000000000000E+00   0.00000000000000E+00   7.86638786613313E-13   5.65263631283820E-14   8.43165149741695E-13
      5.89564519684491E-15  -1.00000000000000E+00  -1.00000000000000E+00   0.00000000000000E+00   0.00000000000000E+00
     -6.08510514621995E-22  -2.18811482578839E-03  -2.18811482578839E-03  -4.03491815914056E-15   0.00000000000000E+00
      0.00000000000000E+00   0.00000000000000E+00   0.00000000000000E+00   1.64564452026898E-22   2.18811482494523E-03
      2.18811482494523E-03  -2.28542864310246E-15
      3.58779593138084E-01
      1.03051017154789E-01   1.03051017154789E-01   0.00000000000000E+00   0.00000000000000E+00   2.39829779773555E-37
     -2.39829779773555E-37   0.00000000000000E+00   3.52063532448303E-16   0.00000000000000E+00   0.00000000000000E+00
      0.00000000000000E+00   0.00000000000000E+00   7.87171181480747E-13   2.27678575299965E-18   7.87173458266500E-13
      5.89845083768592E-15  -1.00000000000000E+00  -1.00000000000000E+00   0.00000000000000E+00   0.00000000000000E+00
     -6.11702139003406E-22  -2.22893181027739E-03  -2.22893181027739E-03  -3.99838114938781E-15   0.00000000000000E+00
      0.00000000000000E+00   0.00000000000000E+00   0.00000000000000E+00   1.67685120115586E-22   2.22893180949022E-03
      2.22893180949022E-03  -2.25213322074642E-15
      4.00000000000000E-01
      0.00000000000000E+00   0.00000000000000E+00   0.00000000000000E+00   0.00000000000000E+00  -3.59713531557012E-34
      3.59713531557012E-34   0.00000000000000E+00   3.01225288694390E-16   0.00000000000000E+00   0.00000000000000E+00
      0.00000000000000E+00   0.00000000000000E+00   7.87543445657091E-13   1.61188908154537E-14   8.03662336472545E-13
      5.90043058619836E-15  -1.00000000000000E+00  -1.00000000000000E+00   0.00000000000000E+00   0.00000000000000E+00
     -6.13934392318903E-22  -2.25748216395846E-03  -2.25748216395846E-03  -3.97280545305411E-15   0.00000000000000E+00
      0.00000000000000E+00   0.00000000000000E+00   0.00000000000000E+00   1.69846291145561E-22   2.25748216315480E-03
      2.25748216315480E-03  -2.22885042183863E-15
      4.74062287353986E-01
     -1.85155718384966E-01  -1.85155718384966E-01   0.00000000000000E+00   0.00000000000000E+00   2.95045637220273E-37
     -2.95045637220273E-37   0.00000000000000E+00   2.10124137452750E-16   0.00000000000000E+00   0.00000000000000E+00
      0.00000000000000E+00   0.00000000000000E+00   7.88211690770270E-13  -2.15972356743675E-18   7.88209531046703E-13
      5.90401156426842E-15  -1.00000000000000E+00  -1.00000000000000E+00   0.00000000000000E+00   0.00000000000000E+00
     -6.17939195091446E-22  -2.30869457361455E-03  -2.30869457361455E-03  -3.92696806485172E-15   0.00000000000000E+00
      0.00000000000000E+00   0.00000000000000E+00   0.00000000000000E+00   1.73749538354719E-22   2.30869457282634E-03
      2.30869457282634E-03  -2.18716763686945E-15
      5.00000000000000E-01
     -2.50000000000000E-01  -2.50000000000000E-01   0.00000000000000E+00   0.00000000000000E+00  -2.57620522046738E-34
      2.57620522046738E-34   0.00000000000000E+00   1.78299229763528E-16   0.00000000000000E+00   0.00000000000000E+00
      0.00000000000000E+00   0.00000000000000E+00   7.88444365282824E-13   2.65015816310149E-15   7.91094523445925E-13
      5.90527083439995E-15  -1.00000000000000E+00  -1.00000000000000E+00   0.00000000000000E+00   0.00000000000000E+00
     -6.19338877520025E-22  -2.32659533106276E-03  -2.32659533106276E-03  -3.91095357466520E-15   0.00000000000000E+00
      0.00000000000000E+00   0.00000000000000E+00   0.00000000000000E+00   1.75124508274900E-22   2.32659533027167E-03
      2.32659533027167E-03  -2.17261648949825E-15
      5.93318482066023E-01
     -4.83296205165057E-01  -4.83296205165057E-01   0.00000000000000E+00   0.00000000000000E+00   5.54621821291593E-36
     -5.54621821291593E-36   0.00000000000000E+00   6.41909873742878E-17   0.00000000000000E+00   0.00000000000000E+00
      0.00000000000000E+00   0.00000000000000E+00   7.89271832872711E-13   2.65884023405101E-18   7.89274491712945E-13
      5.90982690798259E-15  -1.00000000000000E+00  -1.00000000000000E+00   0.00000000000000E+00   0.00000000000000E+00
     -6.24338769685711E-22  -2.39052786996506E-03  -2.39052786996506E-03  -3.85353736903469E-15   0.00000000000000E+00
      0.00000000000000E+00   0.00000000000000E+00   0.00000000000000E+00   1.79965483693089E-22   2.39052786917579E-03
      2.39052786917579E-03  -2.12048052632218E-15
      6.00000000000000E-01
     -5.00000000000000E-01  -5.00000000000000E-01   0.00000000000000E+00   0.00000000000000E+00  -3.23564340855220E-36
      3.23564340855220E-36   0.00000000000000E+00   5.60463755262227E-17   0.00000000000000E+00   0.00000000000000E+00
      0.00000000000000E+00   0.00000000000000E+00   7.89330490697747E-13   8.03890960714414E-18   7.89338529607354E-13
      5.91015465628224E-15  -1.00000000000000E+00  -1.00000000000000E+00   0.00000000000000E+00   0.00000000000000E+00
     -6.24694332320607E-22  -2.39507598427087E-03  -2.39507598427087E-03  -3.84943955442051E-15   0.00000000000000E+00
      0.00000000000000E+00   0.00000000000000E+00   0.00000000000000E+00   1.80307705186703E-22   2.39507598348153E-03
      2.39507598348153E-03  -2.11676147738795E-15
      7.00000000000000E-01
     -7.50000000000000E-01  -7.50000000000000E-01   0.00000000000000E+00   0.00000000000000E+00   3.95247441736486E-37
     -3.95247441736486E-37   0.00000000000000E+00  -6.53945784176239E-17   0.00000000000000E+00   0.00000000000000E+00
      0.00000000000000E+00   0.00000000000000E+00   7.90199836571063E-13   3.14095388441341E-18   7.90202977524947E-13
      5.91506718898176E-15  -1.00000000000000E+00  -1.00000000000000E+00   0.00000000000000E+00   0.00000000000000E+00
     -6.29987050390480E-22  -2.46273011509475E-03  -2.46273011509475E-03  -3.78833244220405E-15   0.00000000000000E+00
      0.00000000000000E+00   0.00000000000000E+00   0.00000000000000E+00   1.85460951298004E-22   2.46273011430455E-03
      2.46273011430455E-03  -2.06134016836009E-15
      8.00000000000000E-01
     -1.00000000000000E+00  -1.00000000000000E+00   0.00000000000000E+00   0.00000000000000E+00   2.46059575367258E-37
     -2.46059575367258E-37   0.00000000000000E+00  -1.85883238080590E-16   0.00000000000000E+00   0.00000000000000E+00
      0.00000000000000E+00   0.00000000000000E+00   7.91049524066062E-13   4.38146731854479E-18   7.91053905533381E-13
      5.91999026105602E-15  -1.00000000000000E+00  -1.00000000000000E+00   0.00000000000000E+00   0.00000000000000E+00
     -6.35196319723447E-22  -2.52930217280850E-03  -2.52930217280850E-03  -3.72769995738711E-15   0.00000000000000E+00
      0.00000000000000E+00   0.00000000000000E+00   0.00000000000000E+00   1.90530154060472E-22   2.52930217201745E-03
      2.52930217201745E-03  -2.00640706558832E-15
      9.00000000000000E-01
     -1.25000000000000E+00  -1.25000000000000E+00   0.00000000000000E+00   0.00000000000000E+00   2.63084147559931E-37
     -2.63084147559931E-37   0.00000000000000E+00  -3.05278450711943E-16   0.00000000000000E+00   0.00000000000000E+00
      0.00000000000000E+00   0.00000000000000E+00   7.91875338902228E-13  -2.57769840631344E-18   7.91872761203822E-13
      5.92491402540021E-15  -1.00000000000000E+00  -1.00000000000000E+00   0.00000000000000E+00   0.00000000000000E+00
     -6.40292900305779E-22  -2.59441852114921E-03  -2.59441852114921E-03  -3.66761793861602E-15   0.00000000000000E+00
      0.00000000000000E+00   0.00000000000000E+00   0.00000000000000E+00   1.95497177407103E-22   2.59441852035734E-03
      2.59441852035734E-03  -1.95201763607225E-15
      1.00000000000000E+00
     -1.50000000000000E+00  -1.50000000000000E+00   0.00000000000000E+00   0.00000000000000E+00   7.90681495914100E-37
     -7.90681495914100E-37   0.00000000000000E+00  -4.23442671901399E-16   0.00000000000000E+00   0.00000000000000E+00
      0.00000000000000E+00   0.00000000000000E+00   7.92677780704988E-13   1.34183537572900E-18   7.92679122540364E-13
      5.92982323725387E-15  -1.00000000000000E+00  -1.00000000000000E+00   0.00000000000000E+00   0.00000000000000E+00
     -6.45273348772276E-22  -2.65803510816876E-03  -2.65803510816876E-03  -3.60816197200459E-15   0.00000000000000E+00
      0.00000000000000E+00   0.00000000000000E+00   0.00000000000000E+00   2.00355295548963E-22   2.65803510737609E-03
      2.65803510737609E-03  -1.89821859334787E-15
}
