DF-ISE text

Info {
  version   = 1.0
  type      = xyplot
  datasets  = [
    "time"
    "gate OuterVoltage" "gate InnerVoltage" "gate QuasiFermiPotential" "gate DisplacementCurrent" "gate eCurrent"
    "gate hCurrent" "gate TotalCurrent" "gate Charge" "substrate OuterVoltage" "substrate InnerVoltage"
    "substrate QuasiFermiPotential" "substrate DisplacementCurrent" "substrate eCurrent" "substrate hCurrent" "substrate TotalCurrent"
    "substrate Charge" "drain OuterVoltage" "drain InnerVoltage" "drain QuasiFermiPotential" "drain DisplacementCurrent"
    "drain eCurrent" "drain hCurrent" "drain TotalCurrent" "drain Charge" "source OuterVoltage"
    "source InnerVoltage" "source QuasiFermiPotential" "source DisplacementCurrent" "source eCurrent" "source hCurrent"
    "source TotalCurrent" "source Charge" ]
  functions = [
    Time
    OuterVoltage InnerVoltage QuasiFermiPotential DisplacementCurrent eCurrent
    hCurrent TotalCurrent Charge OuterVoltage InnerVoltage
    QuasiFermiPotential DisplacementCurrent eCurrent hCurrent TotalCurrent
    Charge OuterVoltage InnerVoltage QuasiFermiPotential DisplacementCurrent
    eCurrent hCurrent TotalCurrent Charge OuterVoltage
    InnerVoltage QuasiFermiPotential DisplacementCurrent eCurrent hCurrent
    TotalCurrent Charge ]
}

Data {
      0.00000000000000E+00
     -1.00000000000000E+00  -1.00000000000000E+00   0.00000000000000E+00   0.00000000000000E+00   3.95142657240250E-36
     -3.95142657240250E-36   0.00000000000000E+00  -6.67308350768788E-16   0.00000000000000E+00   0.00000000000000E+00
      0.00000000000000E+00   0.00000000000000E+00  -4.70940479768404E-22  -1.71814299349244E-14  -1.71814304058649E-14
     -6.75179788397760E-15   1.00000000000000E+00   1.00000000000000E+00   0.00000000000000E+00   0.00000000000000E+00
      1.71814623439487E-14   8.21968204415750E-21   1.71814705636307E-14   4.58034049845475E-15   0.00000000000000E+00
      0.00000000000000E+00   0.00000000000000E+00   0.00000000000000E+00  -4.01575718319068E-20  -1.93923626039726E-25
     -4.01577657555328E-20   2.83876573629165E-15
      1.00000000000000E-03
     -9.97500000000000E-01  -9.97500000000000E-01   0.00000000000000E+00   0.00000000000000E+00   3.93334208575096E-36
     -3.93334208575096E-36   0.00000000000000E+00  -6.65799564411182E-16   0.00000000000000E+00   0.00000000000000E+00
      0.00000000000000E+00   0.00000000000000E+00  -4.64201891161721E-22  -1.71810495041945E-14  -1.71810499683964E-14
     -6.75215578933902E-15   1.00000000000000E+00   1.00000000000000E+00   0.00000000000000E+00   0.00000000000000E+00
      1.71810820488564E-14   8.21968284063806E-21   1.71810902685392E-14   4.57976703004102E-15   0.00000000000000E+00
      0.00000000000000E+00   0.00000000000000E+00   0.00000000000000E+00  -4.03006323304811E-20   4.89475329934522E-25
     -4.03001428551511E-20   2.83818832370924E-15
      2.28000000000000E-03
     -9.94300000000000E-01  -9.94300000000000E-01   0.00000000000000E+00   0.00000000000000E+00   6.15045033040085E-36
     -6.15045033040085E-36   0.00000000000000E+00  -6.63868483635118E-16   0.00000000000000E+00   0.00000000000000E+00
      0.00000000000000E+00   0.00000000000000E+00   3.07871445724571E-19  -1.71805650360542E-14  -1.71802571646085E-14
     -6.75261358263734E-15   1.00000000000000E+00   1.00000000000000E+00   0.00000000000000E+00   0.00000000000000E+00
      1.71805976831693E-14   8.21968200429437E-21   1.71806059028513E-14   4.57903291168239E-15   0.00000000000000E+00
      0.00000000000000E+00   0.00000000000000E+00   0.00000000000000E+00  -3.48781520788074E-19   4.32779094602408E-23
     -3.48738242878614E-19   2.83744915459006E-15
      3.94400000000000E-03
     -9.90140000000000E-01  -9.90140000000000E-01   0.00000000000000E+00   0.00000000000000E+00   1.02977443172724E-35
     -1.02977443172724E-35   0.00000000000000E+00  -6.61358356516114E-16   0.00000000000000E+00   0.00000000000000E+00
      0.00000000000000E+00   0.00000000000000E+00   8.61851511752387E-19  -1.71799393813165E-14  -1.71790775298047E-14
     -6.75320816811049E-15   1.00000000000000E+00   1.00000000000000E+00   0.00000000000000E+00   0.00000000000000E+00
      1.71799722625808E-14   8.21967992660778E-21   1.71799804822607E-14   4.57807842569521E-15   0.00000000000000E+00
      0.00000000000000E+00   0.00000000000000E+00   0.00000000000000E+00  -9.03074938074536E-19   1.22482090186056E-22
     -9.02952455984349E-19   2.83648809893140E-15
      6.10720000000000E-03
     -9.84732000000000E-01  -9.84732000000000E-01   0.00000000000000E+00   0.00000000000000E+00   2.19154859962189E-35
     -2.19154859962189E-35   0.00000000000000E+00  -6.58095660106398E-16   0.00000000000000E+00   0.00000000000000E+00
      0.00000000000000E+00   0.00000000000000E+00   2.44588027891851E-18  -1.71791332042631E-14  -1.71766873239842E-14
     -6.75398020829279E-15   1.00000000000000E+00   1.00000000000000E+00   0.00000000000000E+00   0.00000000000000E+00
      1.71791660912227E-14   8.21967178276256E-21   1.71791743108945E-14   4.57683737092363E-15   0.00000000000000E+00
      0.00000000000000E+00   0.00000000000000E+00   0.00000000000000E+00  -2.48733635102879E-18   3.49440709296854E-22
     -2.48698691031949E-18   2.83523849747558E-15
      8.91936000000000E-03
     -9.77701600000000E-01  -9.77701600000000E-01   0.00000000000000E+00   0.00000000000000E+00   3.90017635237007E-36
     -3.90017635237007E-36   0.00000000000000E+00  -6.53854945396772E-16   0.00000000000000E+00   0.00000000000000E+00
      0.00000000000000E+00   0.00000000000000E+00   6.28698569798517E-22  -1.71780965949599E-14  -1.71780959662614E-14
     -6.75498230742140E-15   1.00000000000000E+00   1.00000000000000E+00   0.00000000000000E+00   0.00000000000000E+00
      1.71781302459261E-14   8.21968915160701E-21   1.71781384656152E-14   4.57522362352091E-15   0.00000000000000E+00
      0.00000000000000E+00   0.00000000000000E+00   0.00000000000000E+00  -4.24988513144040E-20  -5.02522700797368E-25
     -4.24993538371048E-20   2.83361362929729E-15
      1.25189248000000E-02
     -9.68702688000000E-01  -9.68702688000000E-01   0.00000000000000E+00   0.00000000000000E+00   3.91041911756607E-36
     -3.91041911756607E-36   0.00000000000000E+00  -6.48428130961913E-16   0.00000000000000E+00   0.00000000000000E+00
      0.00000000000000E+00   0.00000000000000E+00  -6.35719738022845E-22  -1.71767904008568E-14  -1.71767910365765E-14
     -6.75626243952982E-15   1.00000000000000E+00   1.00000000000000E+00   0.00000000000000E+00   0.00000000000000E+00
      1.71768245526268E-14   8.21969202217218E-21   1.71768327723188E-14   4.57315740771564E-15   0.00000000000000E+00
      0.00000000000000E+00   0.00000000000000E+00   0.00000000000000E+00  -4.17356556921268E-20  -8.66809309994513E-26
     -4.17357423730578E-20   2.83153316277612E-15
      1.71263677440000E-02
     -9.57184080640000E-01  -9.57184080640000E-01   0.00000000000000E+00   0.00000000000000E+00   4.01145159207547E-36
     -4.01145159207547E-36   0.00000000000000E+00  -6.41483931124563E-16   0.00000000000000E+00   0.00000000000000E+00
      0.00000000000000E+00   0.00000000000000E+00   7.73134739873228E-22  -1.71751522343894E-14  -1.71751514612547E-14
     -6.75789683788901E-15   1.00000000000000E+00   1.00000000000000E+00   0.00000000000000E+00   0.00000000000000E+00
      1.71751870269506E-14   8.21969569673569E-21   1.71751952466463E-14   4.57051164011770E-15   0.00000000000000E+00
      0.00000000000000E+00   0.00000000000000E+00   0.00000000000000E+00  -4.37852778783393E-20  -1.13725524596985E-25
     -4.37853916038639E-20   2.82886912889588E-15
      2.30238947123200E-02
     -9.42440263219200E-01  -9.42440263219200E-01   0.00000000000000E+00   0.00000000000000E+00   3.99002594545387E-36
     -3.99002594545387E-36   0.00000000000000E+00  -6.32598816232921E-16   0.00000000000000E+00   0.00000000000000E+00
      0.00000000000000E+00   0.00000000000000E+00  -1.01098212257404E-21  -1.71731119650649E-14  -1.71731129760470E-14
     -6.75998206631299E-15   1.00000000000000E+00   1.00000000000000E+00   0.00000000000000E+00   0.00000000000000E+00
      1.71731477810757E-14   8.21970040445587E-21   1.71731560007762E-14   4.56712340701566E-15   0.00000000000000E+00
      0.00000000000000E+00   0.00000000000000E+00   0.00000000000000E+00  -4.30247010362306E-20  -2.81267284288453E-26
     -4.30247291629590E-20   2.82545747553025E-15
      3.05727292317696E-02
     -9.23568176920576E-01  -9.23568176920576E-01   0.00000000000000E+00   0.00000000000000E+00   3.96957332551530E-36
     -3.96957332551530E-36   0.00000000000000E+00  -6.21231503760192E-16   0.00000000000000E+00   0.00000000000000E+00
      0.00000000000000E+00   0.00000000000000E+00   1.38627913816827E-22  -1.71705955690327E-14  -1.71705954304047E-14
     -6.76264008283402E-15   1.00000000000000E+00   1.00000000000000E+00   0.00000000000000E+00   0.00000000000000E+00
      1.71706326449727E-14   8.21970643233506E-21   1.71706408646792E-14   4.56278377816035E-15   0.00000000000000E+00
      0.00000000000000E+00   0.00000000000000E+00   0.00000000000000E+00  -4.54345582524666E-20   2.83832375415037E-25
     -4.54342744200912E-20   2.82108780843389E-15
      4.02352374166651E-02
     -8.99411906458337E-01  -8.99411906458337E-01   0.00000000000000E+00   0.00000000000000E+00   3.98617332465713E-36
     -3.98617332465713E-36   0.00000000000000E+00  -6.06690499463727E-16   0.00000000000000E+00   0.00000000000000E+00
      0.00000000000000E+00   0.00000000000000E+00  -6.31140845004773E-22  -1.71675349355170E-14  -1.71675355666579E-14
     -6.76602434126235E-15   1.00000000000000E+00   1.00000000000000E+00   0.00000000000000E+00   0.00000000000000E+00
      1.71675737969846E-14   8.21971415259018E-21   1.71675820166987E-14   4.55722467489079E-15   0.00000000000000E+00
      0.00000000000000E+00   0.00000000000000E+00   0.00000000000000E+00  -4.64501297950816E-20   8.90178618202849E-26
     -4.64500407772198E-20   2.81549016583531E-15
      5.26032478933313E-02
     -8.68491880266672E-01  -8.68491880266672E-01   0.00000000000000E+00   0.00000000000000E+00   3.89266671537904E-36
     -3.89266671537904E-36   0.00000000000000E+00  -5.88092852737644E-16   0.00000000000000E+00   0.00000000000000E+00
      0.00000000000000E+00   0.00000000000000E+00   1.38020548269173E-21  -1.71638874195421E-14  -1.71638860393366E-14
     -6.77032700302457E-15   1.00000000000000E+00   1.00000000000000E+00   0.00000000000000E+00   0.00000000000000E+00
      1.71639289094753E-14   8.21972404193159E-21   1.71639371291993E-14   4.55010191361750E-15   0.00000000000000E+00
      0.00000000000000E+00   0.00000000000000E+00   0.00000000000000E+00  -5.10899759252279E-20   1.13133108527158E-25
     -5.10898627921194E-20   2.80831794214473E-15
      6.84343013034641E-02
     -8.28914246741340E-01  -8.28914246741340E-01   0.00000000000000E+00   0.00000000000000E+00   3.97539301901753E-36
     -3.97539301901753E-36   0.00000000000000E+00  -5.64311832340016E-16   0.00000000000000E+00   0.00000000000000E+00
      0.00000000000000E+00   0.00000000000000E+00   1.35428143179610E-20  -1.71596712415319E-14  -1.71596576987176E-14
     -6.77578723982667E-15   1.00000000000000E+00   1.00000000000000E+00   0.00000000000000E+00   0.00000000000000E+00
      1.71597166819136E-14   8.21973669726019E-21   1.71597249016503E-14   4.54097327161796E-15   0.00000000000000E+00
      0.00000000000000E+00   0.00000000000000E+00   0.00000000000000E+00  -6.72031576361225E-20   2.24881047563600E-25
     -6.72029327550749E-20   2.79912580054871E-15
      8.86980496684340E-02
     -7.78254875828915E-01  -7.78254875828915E-01   0.00000000000000E+00   0.00000000000000E+00   4.05436357573753E-36
     -4.05436357573753E-36   0.00000000000000E+00  -5.33910663557741E-16   0.00000000000000E+00   0.00000000000000E+00
      0.00000000000000E+00   0.00000000000000E+00   1.01556866032321E-19  -1.71550217547909E-14  -1.71549201979248E-14
     -6.78270044720535E-15   1.00000000000000E+00   1.00000000000000E+00   0.00000000000000E+00   0.00000000000000E+00
      1.71550736429210E-14   8.21975286580059E-21   1.71550818626738E-14   4.52927006152607E-15   0.00000000000000E+00
      0.00000000000000E+00   0.00000000000000E+00   0.00000000000000E+00  -1.61665989097580E-19   1.24011307583587E-24
     -1.61664748984504E-19   2.78734104923705E-15
      1.00000000000000E-01
     -7.50000000000000E-01  -7.50000000000000E-01   0.00000000000000E+00   0.00000000000000E+00   3.92495254541280E-36
     -3.92495254541280E-36   0.00000000000000E+00  -5.16973091017480E-16   0.00000000000000E+00   0.00000000000000E+00
      0.00000000000000E+00   0.00000000000000E+00   5.97273243193733E-21  -1.71527897411996E-14  -1.71527837684671E-14
     -6.78651988401639E-15   1.00000000000000E+00   1.00000000000000E+00   0.00000000000000E+00   0.00000000000000E+00
      1.71528460504657E-14   8.21976203197321E-21   1.71528542702277E-14   4.52273378988680E-15   0.00000000000000E+00
      0.00000000000000E+00   0.00000000000000E+00   0.00000000000000E+00  -7.05016537020146E-20  -1.06903560553421E-25
     -7.05017606055752E-20   2.78075918514707E-15
      1.25937597907162E-01
     -6.85156005232096E-01  -6.85156005232096E-01   0.00000000000000E+00   0.00000000000000E+00   3.80397721078730E-36
     -3.80397721078730E-36   0.00000000000000E+00  -4.78150722105063E-16   0.00000000000000E+00   0.00000000000000E+00
      0.00000000000000E+00   0.00000000000000E+00   3.30875628011672E-19  -1.71486180342737E-14  -1.71482871586457E-14
     -6.79518913541737E-15   1.00000000000000E+00   1.00000000000000E+00   0.00000000000000E+00   0.00000000000000E+00
      1.71486869465796E-14   8.21978262532187E-21   1.71486951663622E-14   4.50770969487512E-15   0.00000000000000E+00
      0.00000000000000E+00   0.00000000000000E+00   0.00000000000000E+00  -4.08010714049911E-19   2.99752677297100E-24
     -4.08007716523138E-19   2.76563016264730E-15
      1.59137723228328E-01
     -6.02155691929179E-01  -6.02155691929179E-01   0.00000000000000E+00   0.00000000000000E+00   3.88033434476321E-36
     -3.88033434476321E-36   0.00000000000000E+00  -4.28554450974784E-16   0.00000000000000E+00   0.00000000000000E+00
      0.00000000000000E+00   0.00000000000000E+00   5.15029169774527E-22  -1.71451194468066E-14  -1.71451189317774E-14
     -6.80609557436241E-15   1.00000000000000E+00   1.00000000000000E+00   0.00000000000000E+00   0.00000000000000E+00
      1.71452128007350E-14   8.21980963518957E-21   1.71452210205446E-14   4.48843227097140E-15   0.00000000000000E+00
      0.00000000000000E+00   0.00000000000000E+00   0.00000000000000E+00  -1.02088676931568E-19  -9.02887292090733E-26
     -1.02088767220297E-19   2.74621775436578E-15
      2.00000000000000E-01
     -5.00000000000000E-01  -5.00000000000000E-01   0.00000000000000E+00   0.00000000000000E+00   4.01536788656388E-36
     -4.01536788656388E-36   0.00000000000000E+00  -3.67654589480040E-16   0.00000000000000E+00   0.00000000000000E+00
      0.00000000000000E+00   0.00000000000000E+00  -4.16504713344537E-22  -1.71434155366248E-14  -1.71434159531295E-14
     -6.81923734484961E-15   1.00000000000000E+00   1.00000000000000E+00   0.00000000000000E+00   0.00000000000000E+00
      1.71435602275498E-14   8.21984253305497E-21   1.71435684473924E-14   4.46463705956023E-15   0.00000000000000E+00
      0.00000000000000E+00   0.00000000000000E+00   0.00000000000000E+00  -1.52494414846332E-19   1.52044119412319E-25
     -1.52494262802213E-19   2.72225487476942E-15
      2.41832157904670E-01
     -3.95419605238325E-01  -3.95419605238325E-01   0.00000000000000E+00   0.00000000000000E+00   3.87942098776481E-36
     -3.87942098776481E-36   0.00000000000000E+00  -3.05464899413789E-16   0.00000000000000E+00   0.00000000000000E+00
      0.00000000000000E+00   0.00000000000000E+00   2.28248287019010E-22  -1.71442149783313E-14  -1.71442147500830E-14
     -6.83238321177984E-15   1.00000000000000E+00   1.00000000000000E+00   0.00000000000000E+00   0.00000000000000E+00
      1.71444577999459E-14   8.21987621518430E-21   1.71444660198221E-14   4.44020242512558E-15   0.00000000000000E+00
      0.00000000000000E+00   0.00000000000000E+00   0.00000000000000E+00  -2.51269248289168E-19  -4.90747511347020E-25
     -2.51269739036679E-19   2.69764568606805E-15
      2.94540676864554E-01
     -2.63648307838614E-01  -2.63648307838614E-01   0.00000000000000E+00   0.00000000000000E+00   3.99785257302148E-36
     -3.99785257302148E-36   0.00000000000000E+00  -2.27319272506451E-16   0.00000000000000E+00   0.00000000000000E+00
      0.00000000000000E+00   0.00000000000000E+00   7.50194218734262E-22  -1.71479356545015E-14  -1.71479349043073E-14
     -6.84852497335294E-15   1.00000000000000E+00   1.00000000000000E+00   0.00000000000000E+00   0.00000000000000E+00
      1.71484445931364E-14   8.21991878574957E-21   1.71484528130552E-14   4.40931397784173E-15   0.00000000000000E+00
      0.00000000000000E+00   0.00000000000000E+00   0.00000000000000E+00  -5.17908665122476E-19  -8.27873466638474E-26
     -5.17908747909823E-19   2.66653026801767E-15
      3.00000000000000E-01
     -2.50000000000000E-01  -2.50000000000000E-01   0.00000000000000E+00   0.00000000000000E+00   3.90909697775363E-36
     -3.90909697775363E-36   0.00000000000000E+00  -2.19238432890786E-16   0.00000000000000E+00   0.00000000000000E+00
      0.00000000000000E+00   0.00000000000000E+00   9.68292466209434E-21  -1.71484502100535E-14  -1.71484405271288E-14
     -6.85017087422170E-15   1.00000000000000E+00   1.00000000000000E+00   0.00000000000000E+00   0.00000000000000E+00
      1.71490023789232E-14   8.21992320417954E-21   1.71490105988464E-14   4.40610856828252E-15   0.00000000000000E+00
      0.00000000000000E+00   0.00000000000000E+00   0.00000000000000E+00  -5.70071462298369E-19  -2.55263371226125E-25
     -5.70071717561740E-19   2.66330073882998E-15
      3.65358563510257E-01
     -8.66035912243583E-02  -8.66035912243583E-02   0.00000000000000E+00   0.00000000000000E+00   3.93153425406901E-36
     -3.93153425406901E-36   0.00000000000000E+00  -1.22680062029006E-16   0.00000000000000E+00   0.00000000000000E+00
      0.00000000000000E+00   0.00000000000000E+00   7.63727350836715E-22  -1.71561763927019E-14  -1.71561756289746E-14
     -6.86951084606955E-15   1.00000000000000E+00   1.00000000000000E+00   0.00000000000000E+00   0.00000000000000E+00
      1.71577343276579E-14   8.21997619886915E-21   1.71577425476341E-14   4.36764984756184E-15   0.00000000000000E+00
      0.00000000000000E+00   0.00000000000000E+00   0.00000000000000E+00  -1.56691873974710E-18   8.01917693276144E-26
     -1.56691865955533E-18   2.62454106053673E-15
      4.00000000000000E-01
      0.00000000000000E+00   0.00000000000000E+00   0.00000000000000E+00   0.00000000000000E+00   3.90611379557588E-36
     -3.90611379557588E-36   0.00000000000000E+00  -7.16364260617579E-17   0.00000000000000E+00   0.00000000000000E+00
      0.00000000000000E+00   0.00000000000000E+00   1.10440689389550E-21  -1.71614691668083E-14  -1.71614680624014E-14
     -6.87949688380219E-15   1.00000000000000E+00   1.00000000000000E+00   0.00000000000000E+00   0.00000000000000E+00
      1.71642778512801E-14   8.22000437035911E-21   1.71642860712845E-14   4.34720643762136E-15   0.00000000000000E+00
      0.00000000000000E+00   0.00000000000000E+00   0.00000000000000E+00  -2.81800843056239E-18  -4.52519401619725E-25
     -2.81800888308179E-18   2.60392687224261E-15
      4.81044618752718E-01
      2.02611546881796E-01   2.02611546881796E-01   0.00000000000000E+00   0.00000000000000E+00   3.93222694172192E-36
     -3.93222694172192E-36   0.00000000000000E+00   4.74354560075716E-17   0.00000000000000E+00   0.00000000000000E+00
      0.00000000000000E+00   0.00000000000000E+00   1.59592438550622E-22  -1.71769442817504E-14  -1.71769441221580E-14
     -6.90218176145082E-15   1.00000000000000E+00   1.00000000000000E+00   0.00000000000000E+00   0.00000000000000E+00
      1.71891105618947E-14   8.22007049417377E-21   1.71891187819651E-14   4.29923229746760E-15   0.00000000000000E+00
      0.00000000000000E+00   0.00000000000000E+00   0.00000000000000E+00  -1.21746599230531E-17   1.15867672511395E-25
     -1.21746598071854E-17   2.55551400797565E-15
      5.00000000000000E-01
      2.50000000000000E-01   2.50000000000000E-01   0.00000000000000E+00   0.00000000000000E+00  -1.69589237032551E-35
      1.69589237032551E-35   0.00000000000000E+00   7.52177727225579E-17   0.00000000000000E+00   0.00000000000000E+00
      0.00000000000000E+00   0.00000000000000E+00   2.59143705562431E-16  -1.71812285337109E-14  -1.69220848281485E-14
     -6.90735668778837E-15   1.00000000000000E+00   1.00000000000000E+00   0.00000000000000E+00   0.00000000000000E+00
      1.71986349507681E-14   8.22008559283925E-21   1.71986431708537E-14   4.28798433527825E-15   0.00000000000000E+00
      0.00000000000000E+00   0.00000000000000E+00   0.00000000000000E+00  -2.76558360881015E-16   1.81758235446010E-23
     -2.76558342705191E-16   2.54415457978757E-15
      6.00000000000000E-01
      5.00000000000000E-01   5.00000000000000E-01   0.00000000000000E+00   0.00000000000000E+00   3.89688813227836E-36
     -3.89688813227836E-36   0.00000000000000E+00   2.21392506518658E-16   0.00000000000000E+00   0.00000000000000E+00
      0.00000000000000E+00   0.00000000000000E+00  -3.05373244285359E-22  -1.72099731346282E-14  -1.72099734400014E-14
     -6.93390370617681E-15   1.00000000000000E+00   1.00000000000000E+00   0.00000000000000E+00   0.00000000000000E+00
      1.73345685714318E-14   8.22016808877104E-21   1.73345767915999E-14   4.22849365846306E-15   0.00000000000000E+00
      0.00000000000000E+00   0.00000000000000E+00   0.00000000000000E+00  -1.24603351627465E-16   2.90015292520949E-26
     -1.24603351598464E-16   2.48401754119509E-15
      7.00000000000000E-01
      7.50000000000000E-01   7.50000000000000E-01   0.00000000000000E+00   0.00000000000000E+00   6.10830179805311E-36
     -6.10830179805311E-36   0.00000000000000E+00   3.66963442734661E-16   0.00000000000000E+00   0.00000000000000E+00
      0.00000000000000E+00   0.00000000000000E+00  -6.56364175480171E-21  -1.72506058576204E-14  -1.72506124212621E-14
     -6.95931845626084E-15   1.00000000000000E+00   1.00000000000000E+00   0.00000000000000E+00   0.00000000000000E+00
      1.82421098978467E-14   8.22025061231556E-21   1.82421181180973E-14   4.16878355821134E-15   0.00000000000000E+00
      0.00000000000000E+00   0.00000000000000E+00   0.00000000000000E+00  -9.91505696848067E-16   1.29352062338042E-26
     -9.91505696835132E-16   2.42357145531483E-15
      8.00000000000000E-01
      1.00000000000000E+00   1.00000000000000E+00   0.00000000000000E+00   0.00000000000000E+00   4.02701371103780E-36
     -4.02701371103780E-36   0.00000000000000E+00   5.11989392510252E-16   0.00000000000000E+00   0.00000000000000E+00
      0.00000000000000E+00   0.00000000000000E+00  -3.02488940624954E-21  -1.72927858458687E-14  -1.72927888707581E-14
     -6.98376425312241E-15   1.00000000000000E+00   1.00000000000000E+00   0.00000000000000E+00   0.00000000000000E+00
      2.58234100055450E-14   8.22033355039856E-21   2.58234182258786E-14   4.10889385051316E-15   0.00000000000000E+00
      0.00000000000000E+00   0.00000000000000E+00   0.00000000000000E+00  -8.53062935532017E-15   1.99673032528202E-25
     -8.53062935512049E-15   2.36288101009898E-15
      9.00000000000000E-01
      1.25000000000000E+00   1.25000000000000E+00   0.00000000000000E+00   0.00000000000000E+00   3.95684451783771E-36
     -3.95684451783771E-36   0.00000000000000E+00   6.56499265137303E-16   0.00000000000000E+00   0.00000000000000E+00
      0.00000000000000E+00   0.00000000000000E+00   1.02443727086261E-20  -1.73126068266761E-14  -1.73125965823034E-14
     -7.00736083076551E-15   1.00000000000000E+00   1.00000000000000E+00   0.00000000000000E+00   0.00000000000000E+00
      9.52052490027005E-14   8.22041691244585E-21   9.52052572231174E-14   4.04885183286033E-15   0.00000000000000E+00
      0.00000000000000E+00   0.00000000000000E+00   0.00000000000000E+00  -7.78926606406216E-14  -1.92133495624288E-25
     -7.78926606408137E-14   2.30200973276788E-15
      1.00000000000000E+00
      1.50000000000000E+00   1.50000000000000E+00   0.00000000000000E+00   0.00000000000000E+00   3.88541037288979E-36
     -3.88541037288979E-36   0.00000000000000E+00   8.00506797276818E-16   0.00000000000000E+00   0.00000000000000E+00
      0.00000000000000E+00   0.00000000000000E+00  -4.03396393406613E-20  -1.73097451974748E-14  -1.73097855371141E-14
     -7.03021493118559E-15   1.00000000000000E+00   1.00000000000000E+00   0.00000000000000E+00   0.00000000000000E+00
      7.64155897144402E-13   8.22050069574390E-21   7.64155905364903E-13   3.98867767116389E-15   0.00000000000000E+00
      0.00000000000000E+00   0.00000000000000E+00   0.00000000000000E+00  -7.46846119827517E-13  -2.73434748109137E-25
     -7.46846119827790E-13   2.24103046274489E-15
}
