DF-ISE text

Info {
  version   = 1.0
  type      = xyplot
  datasets  = [
    "time"
    "gate OuterVoltage" "gate InnerVoltage" "gate QuasiFermiPotential" "gate DisplacementCurrent" "gate eCurrent"
    "gate hCurrent" "gate TotalCurrent" "gate Charge" "substrate OuterVoltage" "substrate InnerVoltage"
    "substrate QuasiFermiPotential" "substrate DisplacementCurrent" "substrate eCurrent" "substrate hCurrent" "substrate TotalCurrent"
    "substrate Charge" "drain OuterVoltage" "drain InnerVoltage" "drain QuasiFermiPotential" "drain DisplacementCurrent"
    "drain eCurrent" "drain hCurrent" "drain TotalCurrent" "drain Charge" "source OuterVoltage"
    "source InnerVoltage" "source QuasiFermiPotential" "source DisplacementCurrent" "source eCurrent" "source hCurrent"
    "source TotalCurrent" "source Charge" ]
  functions = [
    Time
    OuterVoltage InnerVoltage QuasiFermiPotential DisplacementCurrent eCurrent
    hCurrent TotalCurrent Charge OuterVoltage InnerVoltage
    QuasiFermiPotential DisplacementCurrent eCurrent hCurrent TotalCurrent
    Charge OuterVoltage InnerVoltage QuasiFermiPotential DisplacementCurrent
    eCurrent hCurrent TotalCurrent Charge OuterVoltage
    InnerVoltage QuasiFermiPotential DisplacementCurrent eCurrent hCurrent
    TotalCurrent Charge ]
}

Data {
      0.00000000000000E+00
      1.00000000000000E+00   1.00000000000000E+00   0.00000000000000E+00   0.00000000000000E+00   4.99699724059262E-36
     -4.99699724059262E-36   0.00000000000000E+00   5.86765996335971E-16   0.00000000000000E+00   0.00000000000000E+00
      0.00000000000000E+00   0.00000000000000E+00   9.07115826989951E-13   4.65498211613027E-21   9.07115831644934E-13
      6.19995914671634E-15  -1.00000000000000E+00  -1.00000000000000E+00   0.00000000000000E+00   0.00000000000000E+00
     -8.12893816207961E-22  -9.07115840938845E-13  -9.07115841751739E-13  -4.20052525721499E-15   0.00000000000000E+00
      0.00000000000000E+00   0.00000000000000E+00   0.00000000000000E+00   2.23678211062876E-24   1.01045679960619E-20
      1.01068047781726E-20  -2.58619988583731E-15
      1.00000000000000E-03
      9.97500000000000E-01   9.97500000000000E-01   0.00000000000000E+00   0.00000000000000E+00   5.01777260868585E-36
     -5.01777260868585E-36   0.00000000000000E+00   5.81961979904206E-16   0.00000000000000E+00   0.00000000000000E+00
      0.00000000000000E+00   0.00000000000000E+00   9.07008655276105E-13   4.53036228510434E-21   9.07008659806467E-13
      6.20349950964361E-15  -1.00000000000000E+00  -1.00000000000000E+00   0.00000000000000E+00   0.00000000000000E+00
     -8.12893906498740E-22  -9.07008669161298E-13  -9.07008669974192E-13  -4.19989813126356E-15   0.00000000000000E+00
      0.00000000000000E+00   0.00000000000000E+00   0.00000000000000E+00   1.29164232861942E-24   1.01664317032500E-20
      1.01677233455786E-20  -2.58556335828425E-15
      2.28000000000000E-03
      9.94300000000000E-01   9.94300000000000E-01   0.00000000000000E+00   0.00000000000000E+00   8.93669497250539E-36
     -8.93669497250539E-36   0.00000000000000E+00   5.75815197699306E-16   0.00000000000000E+00   0.00000000000000E+00
      0.00000000000000E+00   0.00000000000000E+00   9.06871511257683E-13  -6.02372712375376E-19   9.06870908884971E-13
      6.20802851722381E-15  -1.00000000000000E+00  -1.00000000000000E+00   0.00000000000000E+00   0.00000000000000E+00
     -8.12717195746666E-22  -9.06871524968409E-13  -9.06871525781126E-13  -4.19909525280469E-15   0.00000000000000E+00
      0.00000000000000E+00   0.00000000000000E+00   0.00000000000000E+00   4.30150995633653E-23   6.16853140284360E-19
      6.16896155383923E-19  -2.58474846211844E-15
      3.94400000000000E-03
      9.90140000000000E-01   9.90140000000000E-01   0.00000000000000E+00   0.00000000000000E+00   4.99723913721707E-36
     -4.99723913721707E-36   0.00000000000000E+00   5.67828353221101E-16   0.00000000000000E+00   0.00000000000000E+00
      0.00000000000000E+00   0.00000000000000E+00   9.06693297049169E-13   3.24539852591850E-21   9.06693300294567E-13
      6.21391175415778E-15  -1.00000000000000E+00  -1.00000000000000E+00   0.00000000000000E+00   0.00000000000000E+00
     -8.12894458859420E-22  -9.06693311105513E-13  -9.06693311918408E-13  -4.19805124677484E-15   0.00000000000000E+00
      0.00000000000000E+00   0.00000000000000E+00   0.00000000000000E+00   1.19954028352929E-24   1.16226385856777E-20
      1.16238381259612E-20  -2.58368886060404E-15
      6.07392000000000E-03
      9.84815200000000E-01   9.84815200000000E-01   0.00000000000000E+00   0.00000000000000E+00   5.02133017030116E-36
     -5.02133017030116E-36   0.00000000000000E+00   5.57611771773667E-16   0.00000000000000E+00   0.00000000000000E+00
      0.00000000000000E+00   0.00000000000000E+00   9.06465329705198E-13   3.08855700579938E-21   9.06465332793755E-13
      6.22143489218193E-15  -1.00000000000000E+00  -1.00000000000000E+00   0.00000000000000E+00   0.00000000000000E+00
     -8.12894810237012E-22  -9.06465343516855E-13  -9.06465344329750E-13  -4.19671448335706E-15   0.00000000000000E+00
      0.00000000000000E+00   0.00000000000000E+00   0.00000000000000E+00   5.90002525704571E-25   1.15354045986224E-20
      1.15359946011481E-20  -2.58233218059854E-15
      8.80021760000000E-03
      9.77999456000000E-01   9.77999456000000E-01   0.00000000000000E+00   0.00000000000000E+00   4.99437802277329E-36
     -4.99437802277329E-36   0.00000000000000E+00   5.44545384223401E-16   0.00000000000000E+00   0.00000000000000E+00
      0.00000000000000E+00   0.00000000000000E+00   9.06173826654439E-13   4.46187893285660E-21   9.06173831116318E-13
      6.23105231895741E-15  -1.00000000000000E+00  -1.00000000000000E+00   0.00000000000000E+00   0.00000000000000E+00
     -8.12895416662717E-22  -9.06173840727768E-13  -9.06173841540664E-13  -4.19500271198420E-15   0.00000000000000E+00
      0.00000000000000E+00   0.00000000000000E+00   0.00000000000000E+00   3.31285738955924E-24   1.04210307005783E-20
      1.04243435579678E-20  -2.58059499119661E-15
      1.22898785280000E-02
      9.69275303680000E-01   9.69275303680000E-01   0.00000000000000E+00   0.00000000000000E+00   4.99808250242479E-36
     -4.99808250242479E-36   0.00000000000000E+00   5.27838281807809E-16   0.00000000000000E+00   0.00000000000000E+00
      0.00000000000000E+00   0.00000000000000E+00   9.05801296414720E-13   4.59354808771131E-21   9.05801301008268E-13
      6.24334253406395E-15  -1.00000000000000E+00  -1.00000000000000E+00   0.00000000000000E+00   0.00000000000000E+00
     -8.12895948357914E-22  -9.05801310372179E-13  -9.05801311185075E-13  -4.19281047381273E-15   0.00000000000000E+00
      0.00000000000000E+00   0.00000000000000E+00   0.00000000000000E+00   2.97342178531048E-25   1.01765074349784E-20
      1.01768047771569E-20  -2.57837034205903E-15
      1.67566445158400E-02
      9.58108388710400E-01   9.58108388710400E-01   0.00000000000000E+00   0.00000000000000E+00   4.99380844765384E-36
     -4.99380844765384E-36   0.00000000000000E+00   5.06482722915108E-16   0.00000000000000E+00   0.00000000000000E+00
      0.00000000000000E+00   0.00000000000000E+00   9.05325649895716E-13   4.37242867529445E-21   9.05325654268145E-13
      6.25904084331223E-15  -1.00000000000000E+00  -1.00000000000000E+00   0.00000000000000E+00   0.00000000000000E+00
     -8.12896719689024E-22  -9.05325663764558E-13  -9.05325664577455E-13  -4.19000248942700E-15   0.00000000000000E+00
      0.00000000000000E+00   0.00000000000000E+00   0.00000000000000E+00  -2.95400412754353E-24   1.03122631260845E-20
      1.03093091219570E-20  -2.57552107680033E-15
      2.24741049802752E-02
      9.43814737549312E-01   9.43814737549312E-01   0.00000000000000E+00   0.00000000000000E+00   4.97569280178224E-36
     -4.97569280178224E-36   0.00000000000000E+00   4.79196509695624E-16   0.00000000000000E+00   0.00000000000000E+00
      0.00000000000000E+00   0.00000000000000E+00   9.04719205676689E-13   2.78757367056257E-21   9.04719208464263E-13
      6.27907982235477E-15  -1.00000000000000E+00  -1.00000000000000E+00   0.00000000000000E+00   0.00000000000000E+00
     -8.12897628191301E-22  -9.04719219613656E-13  -9.04719220426554E-13  -4.18640512220639E-15   0.00000000000000E+00
      0.00000000000000E+00   0.00000000000000E+00   0.00000000000000E+00  -4.51065975522411E-25   1.19627414556558E-20
      1.19622903896803E-20  -2.57187120984402E-15
      2.97924543747523E-02
      9.25518864063119E-01   9.25518864063119E-01   0.00000000000000E+00   0.00000000000000E+00   4.96963790108412E-36
     -4.96963790108412E-36   0.00000000000000E+00   4.44351350243369E-16   0.00000000000000E+00   0.00000000000000E+00
      0.00000000000000E+00   0.00000000000000E+00   9.03947658003534E-13   4.11372757107979E-21   9.03947662117262E-13
      6.30463876585349E-15  -1.00000000000000E+00  -1.00000000000000E+00   0.00000000000000E+00   0.00000000000000E+00
     -8.12898181260145E-22  -9.03947672074016E-13  -9.03947672886914E-13  -4.18179533213549E-15   0.00000000000000E+00
      0.00000000000000E+00   0.00000000000000E+00   0.00000000000000E+00   9.07316722305847E-25   1.07687451664188E-20
      1.07696524831411E-20  -2.56719478396138E-15
      3.91599415996829E-02
      9.02100146000793E-01   9.02100146000793E-01   0.00000000000000E+00   0.00000000000000E+00   4.98265918894292E-36
     -4.98265918894292E-36   0.00000000000000E+00   3.99884785411225E-16   0.00000000000000E+00   0.00000000000000E+00
      0.00000000000000E+00   0.00000000000000E+00   9.02969290804184E-13   2.77848834114851E-21   9.02969293582673E-13
      6.33720299402073E-15  -1.00000000000000E+00  -1.00000000000000E+00   0.00000000000000E+00   0.00000000000000E+00
     -8.12896972020367E-22  -9.02969304850759E-13  -9.02969305663656E-13  -4.17588634200123E-15   0.00000000000000E+00
      0.00000000000000E+00   0.00000000000000E+00   0.00000000000000E+00  -3.16613815153428E-24   1.20841487448813E-20
      1.20809826067298E-20  -2.56120143743072E-15
      5.11503252475941E-02
      8.72124186881015E-01   8.72124186881015E-01   0.00000000000000E+00   0.00000000000000E+00   5.06118505756278E-36
     -5.06118505756278E-36   0.00000000000000E+00   3.43193675928015E-16   0.00000000000000E+00   0.00000000000000E+00
      0.00000000000000E+00   0.00000000000000E+00   9.01734733534654E-13  -3.02205123053086E-21   9.01734730512603E-13
      6.37863295222216E-15  -1.00000000000000E+00  -1.00000000000000E+00   0.00000000000000E+00   0.00000000000000E+00
     -8.12892248766475E-22  -9.01734747524999E-13  -9.01734748337891E-13  -4.16830897413086E-15   0.00000000000000E+00
      0.00000000000000E+00   0.00000000000000E+00   0.00000000000000E+00   2.56761430868030E-25   1.78250323165995E-20
      1.78252890780304E-20  -2.55351765401931E-15
      6.64980163169205E-02
      8.33754959207699E-01   8.33754959207699E-01   0.00000000000000E+00   0.00000000000000E+00   5.15754259068540E-36
     -5.15754259068540E-36   0.00000000000000E+00   2.71008554517023E-16   0.00000000000000E+00   0.00000000000000E+00
      0.00000000000000E+00   0.00000000000000E+00   9.00187920337482E-13  -5.68728180666971E-20   9.00187863464663E-13
      6.43124101879604E-15  -1.00000000000000E+00  -1.00000000000000E+00   0.00000000000000E+00   0.00000000000000E+00
     -8.12862743310731E-22  -9.00187933221447E-13  -9.00187934034309E-13  -4.15858725370182E-15   0.00000000000000E+00
      0.00000000000000E+00   0.00000000000000E+00   0.00000000000000E+00   1.09979294449376E-23   7.05586475207174E-20
      7.05696454501624E-20  -2.54366231961123E-15
      8.61430608856582E-02
      7.84642347785855E-01   7.84642347785855E-01   0.00000000000000E+00   0.00000000000000E+00   4.93088514436602E-36
     -4.93088514436602E-36   0.00000000000000E+00   1.79251008220113E-16   0.00000000000000E+00   0.00000000000000E+00
      0.00000000000000E+00   0.00000000000000E+00   8.98269920489626E-13   3.58790719114030E-21   8.98269924077533E-13
      6.49787010351041E-15  -1.00000000000000E+00  -1.00000000000000E+00   0.00000000000000E+00   0.00000000000000E+00
     -8.12909152391306E-22  -8.98269934512373E-13  -8.98269935325282E-13  -4.14610638048446E-15   0.00000000000000E+00
      0.00000000000000E+00   0.00000000000000E+00   0.00000000000000E+00  -3.04854095486448E-24   1.12507949802822E-20
      1.12477464393273E-20  -2.53101473124606E-15
      1.00000000000000E-01
      7.50000000000000E-01   7.50000000000000E-01   0.00000000000000E+00   0.00000000000000E+00   5.34716430135348E-36
     -5.34716430135348E-36   0.00000000000000E+00   1.14971298754133E-16   0.00000000000000E+00   0.00000000000000E+00
      0.00000000000000E+00   0.00000000000000E+00   8.96963443413120E-13  -1.04980405556948E-19   8.96963338432714E-13
      6.54437815640164E-15  -1.00000000000000E+00  -1.00000000000000E+00   0.00000000000000E+00   0.00000000000000E+00
     -8.12872269454660E-22  -8.96963456969472E-13  -8.96963457782345E-13  -4.13727788814932E-15   0.00000000000000E+00
      0.00000000000000E+00   0.00000000000000E+00   0.00000000000000E+00   1.83985176116607E-23   1.19331229228507E-19
      1.19349627746118E-19  -2.52207156700643E-15
      1.24752756156610E-01
      6.88118109608476E-01   6.88118109608476E-01   0.00000000000000E+00   0.00000000000000E+00   5.07477386736049E-36
     -5.07477386736049E-36   0.00000000000000E+00   1.08244110256831E-18   0.00000000000000E+00   0.00000000000000E+00
      0.00000000000000E+00   0.00000000000000E+00   8.94737788707524E-13   3.11401927730625E-21   8.94737791821543E-13
      6.62642563872127E-15  -1.00000000000000E+00  -1.00000000000000E+00   0.00000000000000E+00   0.00000000000000E+00
     -8.12915994108292E-22  -8.94737802869510E-13  -8.94737803682426E-13  -4.12145663712849E-15   0.00000000000000E+00
      0.00000000000000E+00   0.00000000000000E+00   0.00000000000000E+00  -1.61193920410813E-24   1.18624934780840E-20
      1.18608815388799E-20  -2.50605144269535E-15
      1.55941228913938E-01
      6.10146927715156E-01   6.10146927715156E-01   0.00000000000000E+00   0.00000000000000E+00   5.03905302305679E-36
     -5.03905302305679E-36   0.00000000000000E+00  -1.40676141689979E-16   0.00000000000000E+00   0.00000000000000E+00
      0.00000000000000E+00   0.00000000000000E+00   8.92163689677401E-13   5.03147267867961E-21   8.92163694708874E-13
      6.72789162837705E-15  -1.00000000000000E+00  -1.00000000000000E+00   0.00000000000000E+00   0.00000000000000E+00
     -8.12921497983104E-22  -8.92163704133093E-13  -8.92163704946014E-13  -4.10143035827448E-15   0.00000000000000E+00
      0.00000000000000E+00   0.00000000000000E+00   0.00000000000000E+00  -1.27761155542636E-24   1.02384186366626E-20
      1.02371410251072E-20  -2.48578512841260E-15
      1.95238704588171E-01
      5.11903238529573E-01   5.11903238529573E-01   0.00000000000000E+00   0.00000000000000E+00   4.97405316951378E-36
     -4.97405316951378E-36   0.00000000000000E+00  -3.16491870093943E-16   0.00000000000000E+00   0.00000000000000E+00
      0.00000000000000E+00   0.00000000000000E+00   8.89360902272384E-13   4.24870946921650E-21   8.89360906521093E-13
      6.85267097188936E-15  -1.00000000000000E+00  -1.00000000000000E+00   0.00000000000000E+00   0.00000000000000E+00
     -8.12928012097462E-22  -8.89360916857463E-13  -8.89360917670391E-13  -4.07605571308158E-15   0.00000000000000E+00
      0.00000000000000E+00   0.00000000000000E+00   0.00000000000000E+00  -1.32772880993290E-24   1.11506266895441E-20
      1.11492989607342E-20  -2.46012338871385E-15
      2.00000000000000E-01
      5.00000000000000E-01   5.00000000000000E-01   0.00000000000000E+00   0.00000000000000E+00   5.15212128203404E-36
     -5.15212128203404E-36   0.00000000000000E+00  -3.37581861571898E-16   0.00000000000000E+00   0.00000000000000E+00
      0.00000000000000E+00   0.00000000000000E+00   8.89058745881568E-13  -3.15137446411957E-21   8.89058742730194E-13
      6.86755751333766E-15  -1.00000000000000E+00  -1.00000000000000E+00   0.00000000000000E+00   0.00000000000000E+00
     -8.12928323991748E-22  -8.89058760593582E-13  -8.89058761406510E-13  -4.07297085856393E-15   0.00000000000000E+00
      0.00000000000000E+00   0.00000000000000E+00   0.00000000000000E+00   3.96988217390000E-25   1.86759213703610E-20
      1.86763183585784E-20  -2.45700479320184E-15
      2.49514819349534E-01
      3.76212951626165E-01   3.76212951626165E-01   0.00000000000000E+00   0.00000000000000E+00   5.10499294703288E-36
     -5.10499294703288E-36   0.00000000000000E+00  -5.54235648666019E-16   0.00000000000000E+00   0.00000000000000E+00
      0.00000000000000E+00   0.00000000000000E+00   8.86430741727414E-13  -3.67771634077054E-21   8.86430738049698E-13
      7.01945150030950E-15  -1.00000000000000E+00  -1.00000000000000E+00   0.00000000000000E+00   0.00000000000000E+00
     -8.12929830080569E-22  -8.86430756910699E-13  -8.86430757723629E-13  -4.04076102524988E-15   0.00000000000000E+00
      0.00000000000000E+00   0.00000000000000E+00   0.00000000000000E+00   1.47322418468555E-24   1.96724587824192E-20
      1.96739320066039E-20  -2.42445482639360E-15
      3.00000000000000E-01
      2.50000000000000E-01   2.50000000000000E-01   0.00000000000000E+00   0.00000000000000E+00   5.20901616625277E-36
     -5.20901616625277E-36   0.00000000000000E+00  -7.70294512334806E-16   0.00000000000000E+00   0.00000000000000E+00
      0.00000000000000E+00   0.00000000000000E+00   8.84641649792857E-13  -6.98352264225450E-21   8.84641642809334E-13
      7.16903203722042E-15  -1.00000000000000E+00  -1.00000000000000E+00   0.00000000000000E+00   0.00000000000000E+00
     -8.12931682692846E-22  -8.84641666087495E-13  -8.84641666900427E-13  -4.00768875209117E-15   0.00000000000000E+00
      0.00000000000000E+00   0.00000000000000E+00   0.00000000000000E+00   2.76814976716497E-27   2.40910889666675E-20
      2.40910917348173E-20  -2.39104877279445E-15
      3.62388672380413E-01
      9.40283190489679E-02   9.40283190489679E-02   0.00000000000000E+00   0.00000000000000E+00   5.04922273940757E-36
     -5.04922273940757E-36   0.00000000000000E+00  -1.03105852699133E-15   0.00000000000000E+00   0.00000000000000E+00
      0.00000000000000E+00   0.00000000000000E+00   8.83165542835585E-13   4.26862213605211E-21   8.83165547104207E-13
      7.34704805507352E-15  -1.00000000000000E+00  -1.00000000000000E+00   0.00000000000000E+00   0.00000000000000E+00
     -8.12958353288519E-22  -8.83165562466220E-13  -8.83165563279178E-13  -3.96652157068091E-15   0.00000000000000E+00
      0.00000000000000E+00   0.00000000000000E+00   0.00000000000000E+00  -1.04418223308039E-24   1.61760146869161E-20
      1.61749705046830E-20  -2.34946795740127E-15
      4.00000000000000E-01
      0.00000000000000E+00   0.00000000000000E+00   0.00000000000000E+00   0.00000000000000E+00   5.06611728414294E-36
     -5.06611728414294E-36   0.00000000000000E+00  -1.18521228133706E-15   0.00000000000000E+00   0.00000000000000E+00
      0.00000000000000E+00   0.00000000000000E+00   8.82353714919083E-13   2.16043830647695E-21   8.82353717079521E-13
      7.45101271598592E-15  -1.00000000000000E+00  -1.00000000000000E+00   0.00000000000000E+00   0.00000000000000E+00
     -8.12964109307976E-22  -8.82353739578761E-13  -8.82353740391725E-13  -3.94155768172690E-15   0.00000000000000E+00
      0.00000000000000E+00   0.00000000000000E+00   0.00000000000000E+00  -2.66137238658863E-24   2.33148687339301E-20
      2.33122073615435E-20  -2.32424275292196E-15
      4.77361953751712E-01
     -1.93404884379280E-01  -1.93404884379280E-01   0.00000000000000E+00   0.00000000000000E+00   5.04977801583326E-36
     -5.04977801583326E-36   0.00000000000000E+00  -1.49571687990471E-15   0.00000000000000E+00   0.00000000000000E+00
      0.00000000000000E+00   0.00000000000000E+00   8.80303422379312E-13   4.16855144147268E-21   8.80303426547863E-13
      7.65759908418700E-15  -1.00000000000000E+00  -1.00000000000000E+00   0.00000000000000E+00   0.00000000000000E+00
     -8.12979176608278E-22  -8.80303487674932E-13  -8.80303488487911E-13  -3.88989831063993E-15   0.00000000000000E+00
      0.00000000000000E+00   0.00000000000000E+00   0.00000000000000E+00   9.02365615957659E-25   6.19391475041375E-20
      6.19400498697535E-20  -2.27198389364238E-15
      5.00000000000000E-01
     -2.50000000000000E-01  -2.50000000000000E-01   0.00000000000000E+00   0.00000000000000E+00   5.00627050717304E-36
     -5.00627050717304E-36   0.00000000000000E+00  -1.58498707255010E-15   0.00000000000000E+00   0.00000000000000E+00
      0.00000000000000E+00   0.00000000000000E+00   8.79618719758636E-13   3.24768894888362E-21   8.79618723006325E-13
      7.71629237411194E-15  -1.00000000000000E+00  -1.00000000000000E+00   0.00000000000000E+00   0.00000000000000E+00
     -8.12983234652501E-22  -8.79618820934162E-13  -8.79618821747146E-13  -3.87470854104392E-15   0.00000000000000E+00
      0.00000000000000E+00   0.00000000000000E+00   0.00000000000000E+00  -1.29597049969731E-24   9.87421158134590E-20
      9.87408198429593E-20  -2.25659676051790E-15
      5.95928822652123E-01
     -4.89822056630307E-01  -4.89822056630307E-01   0.00000000000000E+00   0.00000000000000E+00   5.22699756316678E-36
     -5.22699756316678E-36   0.00000000000000E+00  -1.95567255174030E-15   0.00000000000000E+00   0.00000000000000E+00
      0.00000000000000E+00   0.00000000000000E+00   8.76999872836052E-13  -1.96000001888152E-21   8.76999870876052E-13
      7.95662382366814E-15  -1.00000000000000E+00  -1.00000000000000E+00   0.00000000000000E+00   0.00000000000000E+00
     -8.10784761148569E-22  -8.77000993728868E-13  -8.77000994539652E-13  -3.81001976119058E-15   0.00000000000000E+00
      0.00000000000000E+00   0.00000000000000E+00   0.00000000000000E+00  -6.62125058017225E-25   1.12366426250631E-18
      1.12366360038125E-18  -2.19093151073724E-15
      6.00000000000000E-01
     -5.00000000000000E-01  -5.00000000000000E-01   0.00000000000000E+00   0.00000000000000E+00   5.25237271894053E-36
     -5.25237271894053E-36   0.00000000000000E+00  -1.97114466319317E-15   0.00000000000000E+00   0.00000000000000E+00
      0.00000000000000E+00   0.00000000000000E+00   8.76905999730350E-13  -8.59868581139414E-18   8.76897401044538E-13
      7.96653736511489E-15  -1.00000000000000E+00  -1.00000000000000E+00   0.00000000000000E+00   0.00000000000000E+00
     -8.12986756456407E-22  -8.76907258684270E-13  -8.76907259497257E-13  -3.80726384584541E-15   0.00000000000000E+00
      0.00000000000000E+00   0.00000000000000E+00   0.00000000000000E+00   4.39158338773327E-25   9.85845228074733E-18
      9.85845271990567E-18  -2.18812885607632E-15
      7.00000000000000E-01
     -7.50000000000000E-01  -7.50000000000000E-01   0.00000000000000E+00   0.00000000000000E+00   8.13782496549948E-36
     -8.13782496549948E-36   0.00000000000000E+00  -2.34543996190959E-15   0.00000000000000E+00   0.00000000000000E+00
      0.00000000000000E+00   0.00000000000000E+00   8.75016761017145E-13   2.73504115121615E-21   8.75016763752186E-13
      8.20370525788105E-15  -1.00000000000000E+00  -1.00000000000000E+00   0.00000000000000E+00   0.00000000000000E+00
     -8.13019636785116E-22  -8.75043972450716E-13  -8.75043973263736E-13  -3.73933842716088E-15   0.00000000000000E+00
      0.00000000000000E+00   0.00000000000000E+00   0.00000000000000E+00   1.19428766190849E-24   2.72095103557657E-17
      2.72095115500533E-17  -2.11892686881056E-15
      8.00000000000000E-01
     -1.00000000000000E+00  -1.00000000000000E+00   0.00000000000000E+00   0.00000000000000E+00   5.18181065467050E-36
     -5.18181065467050E-36   0.00000000000000E+00  -2.71045927619457E-15   0.00000000000000E+00   0.00000000000000E+00
      0.00000000000000E+00   0.00000000000000E+00   8.73905577784839E-13   2.96577071627111E-20   8.73905607442546E-13
      8.43062722703534E-15  -1.00000000000000E+00  -1.00000000000000E+00   0.00000000000000E+00   0.00000000000000E+00
     -8.13037847524286E-22  -8.74714083265485E-13  -8.74714084078523E-13  -3.67102509247302E-15   0.00000000000000E+00
      0.00000000000000E+00   0.00000000000000E+00   0.00000000000000E+00  -2.81249997573432E-25   8.08476636260808E-16
      8.08476635979558E-16  -2.04914285836775E-15
      9.00000000000000E-01
     -1.25000000000000E+00  -1.25000000000000E+00   0.00000000000000E+00   0.00000000000000E+00   5.23220295864565E-36
     -5.23220295864565E-36   0.00000000000000E+00  -3.06739783059582E-15   0.00000000000000E+00   0.00000000000000E+00
      0.00000000000000E+00   0.00000000000000E+00   8.74260068993593E-13   9.91482728902268E-20   8.74260168141866E-13
      8.64877261925599E-15  -1.00000000000000E+00  -1.00000000000000E+00   0.00000000000000E+00   0.00000000000000E+00
     -8.13056113757681E-22  -9.05172331276179E-13  -9.05172332089235E-13  -3.60238601969452E-15   0.00000000000000E+00
      0.00000000000000E+00   0.00000000000000E+00   0.00000000000000E+00   1.96835402030705E-25   3.09121639471722E-14
      3.09121639473690E-14  -1.97898876896562E-15
      1.00000000000000E+00
     -1.50000000000000E+00  -1.50000000000000E+00   0.00000000000000E+00   0.00000000000000E+00   5.39334181173359E-36
     -5.39334181173359E-36   0.00000000000000E+00  -3.41693198440260E-15   0.00000000000000E+00   0.00000000000000E+00
      0.00000000000000E+00   0.00000000000000E+00   8.78840498171591E-13  -2.54198100383701E-19   8.78840243973490E-13
      8.85922384033818E-15  -1.00000000000000E+00  -1.00000000000000E+00   0.00000000000000E+00   0.00000000000000E+00
     -8.13074503681397E-22  -2.35466424282554E-12  -2.35466424363862E-12  -3.53345705663427E-15   0.00000000000000E+00
      0.00000000000000E+00   0.00000000000000E+00   0.00000000000000E+00  -4.97216053717973E-25   1.47582399966562E-12
      1.47582399966513E-12  -1.90883479930129E-15
}
