DF-ISE text

Info {
  version   = 1.0
  type      = xyplot
  datasets  = [
    "time"
    "gate OuterVoltage" "gate InnerVoltage" "gate QuasiFermiPotential" "gate DisplacementCurrent" "gate eCurrent"
    "gate hCurrent" "gate TotalCurrent" "gate Charge" "substrate OuterVoltage" "substrate InnerVoltage"
    "substrate QuasiFermiPotential" "substrate DisplacementCurrent" "substrate eCurrent" "substrate hCurrent" "substrate TotalCurrent"
    "substrate Charge" "drain OuterVoltage" "drain InnerVoltage" "drain QuasiFermiPotential" "drain DisplacementCurrent"
    "drain eCurrent" "drain hCurrent" "drain TotalCurrent" "drain Charge" "source OuterVoltage"
    "source InnerVoltage" "source QuasiFermiPotential" "source DisplacementCurrent" "source eCurrent" "source hCurrent"
    "source TotalCurrent" "source Charge" ]
  functions = [
    Time
    OuterVoltage InnerVoltage QuasiFermiPotential DisplacementCurrent eCurrent
    hCurrent TotalCurrent Charge OuterVoltage InnerVoltage
    QuasiFermiPotential DisplacementCurrent eCurrent hCurrent TotalCurrent
    Charge OuterVoltage InnerVoltage QuasiFermiPotential DisplacementCurrent
    eCurrent hCurrent TotalCurrent Charge OuterVoltage
    InnerVoltage QuasiFermiPotential DisplacementCurrent eCurrent hCurrent
    TotalCurrent Charge ]
}

Data {
      0.00000000000000E+00
      1.00000000000000E+00   1.00000000000000E+00   0.00000000000000E+00   0.00000000000000E+00   7.55642416924768E-36
     -7.55642416924768E-36   0.00000000000000E+00   5.72783532432418E-16   0.00000000000000E+00   0.00000000000000E+00
      0.00000000000000E+00   0.00000000000000E+00   2.09917885332505E-13  -5.16284522200536E-20   2.09917833704052E-13
      4.07915936691716E-15  -1.00000000000000E+00  -1.00000000000000E+00   0.00000000000000E+00   0.00000000000000E+00
     -6.83292064425978E-22  -2.09917889013367E-13  -2.09917889696659E-13  -2.86730404035570E-15   0.00000000000000E+00
      0.00000000000000E+00   0.00000000000000E+00   0.00000000000000E+00   1.80144976761816E-26   5.59925880433928E-20
      5.59926060578905E-20  -1.78463885899388E-15
      1.00000000000000E-03
      9.97500000000000E-01   9.97500000000000E-01   0.00000000000000E+00   0.00000000000000E+00   7.46524158922264E-36
     -7.46524158922264E-36   0.00000000000000E+00   5.67531346800384E-16   0.00000000000000E+00   0.00000000000000E+00
      0.00000000000000E+00   0.00000000000000E+00   2.09915094566595E-13  -1.07931875828044E-20   2.09915083773407E-13
      4.08322325840953E-15  -1.00000000000000E+00  -1.00000000000000E+00   0.00000000000000E+00   0.00000000000000E+00
     -6.83292116649778E-22  -2.09915128243654E-13  -2.09915128926946E-13  -2.86669922647157E-15   0.00000000000000E+00
      0.00000000000000E+00   0.00000000000000E+00   0.00000000000000E+00   2.36870989921255E-26   4.51535154044759E-20
      4.51535390915749E-20  -1.78405537873835E-15
      2.28000000000000E-03
      9.94300000000000E-01   9.94300000000000E-01   0.00000000000000E+00   0.00000000000000E+00   7.58046525192427E-36
     -7.58046525192427E-36   0.00000000000000E+00   5.60811702229888E-16   0.00000000000000E+00   0.00000000000000E+00
      0.00000000000000E+00   0.00000000000000E+00   2.09911529028255E-13  -3.09891488344958E-20   2.09911498039106E-13
      4.08842165427614E-15  -1.00000000000000E+00  -1.00000000000000E+00   0.00000000000000E+00   0.00000000000000E+00
     -6.83292167225490E-22  -2.09911567294117E-13  -2.09911567977409E-13  -2.86592495834340E-15   0.00000000000000E+00
      0.00000000000000E+00   0.00000000000000E+00   0.00000000000000E+00  -1.82644144729488E-26   6.99383208051466E-20
      6.99383025407322E-20  -1.78330839816263E-15
      3.91840000000000E-03
      9.90204000000000E-01   9.90204000000000E-01   0.00000000000000E+00   0.00000000000000E+00   7.56771388793310E-36
     -7.56771388793310E-36   0.00000000000000E+00   5.52215742039084E-16   0.00000000000000E+00   0.00000000000000E+00
      0.00000000000000E+00   0.00000000000000E+00   2.09906976005830E-13  -7.90668884121586E-21   2.09906968099142E-13
      4.09507003581028E-15  -1.00000000000000E+00  -1.00000000000000E+00   0.00000000000000E+00   0.00000000000000E+00
     -6.83292286196869E-22  -2.09906982057237E-13  -2.09906982740529E-13  -2.86493372095148E-15   0.00000000000000E+00
      0.00000000000000E+00   0.00000000000000E+00   0.00000000000000E+00   9.37461092975879E-27   1.46413780131381E-20
      1.46413873877490E-20  -1.78235205689788E-15
      6.01555200000000E-03
      9.84961120000000E-01   9.84961120000000E-01   0.00000000000000E+00   0.00000000000000E+00   7.54286634381834E-36
     -7.54286634381834E-36   0.00000000000000E+00   5.41221447486081E-16   0.00000000000000E+00   0.00000000000000E+00
      0.00000000000000E+00   0.00000000000000E+00   2.09901165893175E-13  -5.54163399102822E-21   2.09901160351541E-13
      4.10357080685608E-15  -1.00000000000000E+00  -1.00000000000000E+00   0.00000000000000E+00   0.00000000000000E+00
     -6.83292434833839E-22  -2.09901176422257E-13  -2.09901177105549E-13  -2.86366465184440E-15   0.00000000000000E+00
      0.00000000000000E+00   0.00000000000000E+00   0.00000000000000E+00   7.83993706162841E-27   1.67539995881033E-20
      1.67540074280404E-20  -1.78112760249775E-15
      8.69990656000000E-03
      9.78250233600000E-01   9.78250233600000E-01   0.00000000000000E+00   0.00000000000000E+00   7.52244848155436E-36
     -7.52244848155436E-36   0.00000000000000E+00   5.27162816264086E-16   0.00000000000000E+00   0.00000000000000E+00
      0.00000000000000E+00   0.00000000000000E+00   2.09893757897920E-13  -1.29228378851561E-20   2.09893744975082E-13
      4.11443670817400E-15  -1.00000000000000E+00  -1.00000000000000E+00   0.00000000000000E+00   0.00000000000000E+00
     -6.83292568535009E-22  -2.09893783875212E-13  -2.09893784558505E-13  -2.86203977635522E-15   0.00000000000000E+00
      0.00000000000000E+00   0.00000000000000E+00   0.00000000000000E+00   4.08885238588261E-26   3.95833819306497E-20
      3.95834228191736E-20  -1.77955974808285E-15
      1.21358803968000E-02
      9.69660299008000E-01   9.69660299008000E-01   0.00000000000000E+00   0.00000000000000E+00   7.53420188279905E-36
     -7.53420188279905E-36   0.00000000000000E+00   5.09190986986349E-16   0.00000000000000E+00   0.00000000000000E+00
      0.00000000000000E+00   0.00000000000000E+00   2.09884322684331E-13  -2.88764847652973E-21   2.09884319796683E-13
      4.12832017370508E-15  -1.00000000000000E+00  -1.00000000000000E+00   0.00000000000000E+00   0.00000000000000E+00
     -6.83292723558321E-22  -2.09884345495155E-13  -2.09884346178448E-13  -2.85995917123424E-15   0.00000000000000E+00
      0.00000000000000E+00   0.00000000000000E+00   0.00000000000000E+00   3.41974496995629E-26   2.63817309426098E-20
      2.63817651400595E-20  -1.77755198945717E-15
      1.65339269079040E-02
      9.58665182730240E-01   9.58665182730240E-01   0.00000000000000E+00   0.00000000000000E+00   7.49050322325631E-36
     -7.49050322325631E-36   0.00000000000000E+00   4.86225448599719E-16   0.00000000000000E+00   0.00000000000000E+00
      0.00000000000000E+00   0.00000000000000E+00   2.09872321498924E-13  -1.09964168184854E-20   2.09872310502507E-13
      4.14604987439552E-15  -1.00000000000000E+00  -1.00000000000000E+00   0.00000000000000E+00   0.00000000000000E+00
     -6.83293085416724E-22  -2.09872346073603E-13  -2.09872346756896E-13  -2.85729474566633E-15   0.00000000000000E+00
      0.00000000000000E+00   0.00000000000000E+00   0.00000000000000E+00  -2.47764460274095E-27   3.62543909470196E-20
      3.62543884693750E-20  -1.77498057732892E-15
      2.21634264421171E-02
      9.44591433894707E-01   9.44591433894707E-01   0.00000000000000E+00   0.00000000000000E+00   7.56768047517483E-36
     -7.56768047517483E-36   0.00000000000000E+00   4.56893231776260E-16   0.00000000000000E+00   0.00000000000000E+00
      0.00000000000000E+00   0.00000000000000E+00   2.09857081157950E-13  -1.08143469245704E-20   2.09857070343603E-13
      4.16867574994922E-15  -1.00000000000000E+00  -1.00000000000000E+00   0.00000000000000E+00   0.00000000000000E+00
     -6.83293372493118E-22  -2.09857083193791E-13  -2.09857083877084E-13  -2.85388223473482E-15   0.00000000000000E+00
      0.00000000000000E+00   0.00000000000000E+00   0.00000000000000E+00   4.49125147094613E-27   1.35334772631676E-20
      1.35334817544191E-20  -1.77168674699066E-15
      2.93691858459099E-02
      9.26577035385225E-01   9.26577035385225E-01   0.00000000000000E+00   0.00000000000000E+00   7.50490560147127E-36
     -7.50490560147127E-36   0.00000000000000E+00   4.19453875367253E-16   0.00000000000000E+00   0.00000000000000E+00
      0.00000000000000E+00   0.00000000000000E+00   2.09837763575398E-13  -9.41112102290087E-20   2.09837669464188E-13
      4.19752368442473E-15  -1.00000000000000E+00  -1.00000000000000E+00   0.00000000000000E+00   0.00000000000000E+00
     -6.83293798420957E-22  -2.09837791084765E-13  -2.09837791768059E-13  -2.84951087612545E-15   0.00000000000000E+00
      0.00000000000000E+00   0.00000000000000E+00   0.00000000000000E+00   1.55905977232654E-26   1.22303855069174E-19
      1.22303870659772E-19  -1.76746668366652E-15
      3.85925578827647E-02
      9.03518605293088E-01   9.03518605293088E-01   0.00000000000000E+00   0.00000000000000E+00   7.47404563510083E-36
     -7.47404563510083E-36   0.00000000000000E+00   3.71708187943171E-16   0.00000000000000E+00   0.00000000000000E+00
      0.00000000000000E+00   0.00000000000000E+00   2.09813326232268E-13  -7.00419730660598E-19   2.09812625812537E-13
      4.23426042326326E-15  -1.00000000000000E+00  -1.00000000000000E+00   0.00000000000000E+00   0.00000000000000E+00
     -6.83294353620727E-22  -2.09813337724555E-13  -2.09813338407850E-13  -2.84391007553780E-15   0.00000000000000E+00
      0.00000000000000E+00   0.00000000000000E+00   0.00000000000000E+00  -1.26954022532806E-26   7.12595325495724E-19
      7.12595312800322E-19  -1.76205853566863E-15
      5.03984740899388E-02
      8.74003814775153E-01   8.74003814775153E-01   0.00000000000000E+00   0.00000000000000E+00   7.53363945147221E-36
     -7.53363945147221E-36   0.00000000000000E+00   3.10889736043436E-16   0.00000000000000E+00   0.00000000000000E+00
      0.00000000000000E+00   0.00000000000000E+00   2.09782463538747E-13  -5.07621388254848E-18   2.09777387324865E-13
      4.28096797421942E-15  -1.00000000000000E+00  -1.00000000000000E+00   0.00000000000000E+00   0.00000000000000E+00
     -6.83295007602794E-22  -2.09782419071207E-13  -2.09782419754502E-13  -2.83673214540283E-15   0.00000000000000E+00
      0.00000000000000E+00   0.00000000000000E+00   0.00000000000000E+00  -5.16794722848179E-27   5.03242964238308E-18
      5.03242963721514E-18  -1.75512556486002E-15
      6.55100468351217E-02
      8.36224882912196E-01   8.36224882912196E-01   0.00000000000000E+00   0.00000000000000E+00   7.69508246694179E-36
     -7.69508246694179E-36   0.00000000000000E+00   2.33540182277697E-16   0.00000000000000E+00   0.00000000000000E+00
      0.00000000000000E+00   0.00000000000000E+00   2.09743502277070E-13  -3.67218607559692E-17   2.09706780416314E-13
      4.34022395119727E-15  -1.00000000000000E+00  -1.00000000000000E+00   0.00000000000000E+00   0.00000000000000E+00
     -6.83295832471025E-22  -2.09743058171890E-13  -2.09743058855186E-13  -2.82752990669625E-15   0.00000000000000E+00
      0.00000000000000E+00   0.00000000000000E+00   0.00000000000000E+00  -3.26963928614204E-26   3.62784389047646E-17
      3.62784388720682E-17  -1.74623422677872E-15
      8.48528599489558E-02
      7.87867850127611E-01   7.87867850127611E-01   0.00000000000000E+00   0.00000000000000E+00   7.49830221280018E-36
     -7.49830221280018E-36   0.00000000000000E+00   1.35373892486770E-16   0.00000000000000E+00   0.00000000000000E+00
      0.00000000000000E+00   0.00000000000000E+00   2.09694182643816E-13  -4.06751456139605E-20   2.09694141968670E-13
      4.41517924388824E-15  -1.00000000000000E+00  -1.00000000000000E+00   0.00000000000000E+00   0.00000000000000E+00
     -6.83297074614630E-22  -2.09694206704106E-13  -2.09694207387403E-13  -2.81572755245364E-15   0.00000000000000E+00
      0.00000000000000E+00   0.00000000000000E+00   0.00000000000000E+00  -1.75054515078701E-27   6.54187340062776E-20
      6.54187322557324E-20  -1.73482558392136E-15
      1.00000000000000E-01
      7.50000000000000E-01   7.50000000000000E-01   0.00000000000000E+00   0.00000000000000E+00   7.48875729272719E-36
     -7.48875729272719E-36   0.00000000000000E+00   5.91788430837783E-17   0.00000000000000E+00   0.00000000000000E+00
      0.00000000000000E+00   0.00000000000000E+00   2.09655675585475E-13   1.09225239721658E-20   2.09655686507999E-13
      4.47315845722296E-15  -1.00000000000000E+00  -1.00000000000000E+00   0.00000000000000E+00   0.00000000000000E+00
     -6.83297927912385E-22  -2.09655688668529E-13  -2.09655689351827E-13  -2.80646708827865E-15   0.00000000000000E+00
      0.00000000000000E+00   0.00000000000000E+00   0.00000000000000E+00  -2.78404499112074E-26   2.84385529956409E-21
      2.84382745911417E-21  -1.72587021202811E-15
      1.24371944523431E-01
      6.89070138691423E-01   6.89070138691423E-01   0.00000000000000E+00   0.00000000000000E+00   7.64478940970813E-36
     -7.64478940970813E-36   0.00000000000000E+00  -6.21380768318081E-17   0.00000000000000E+00   0.00000000000000E+00
      0.00000000000000E+00   0.00000000000000E+00   2.09593145830676E-13  -4.48460880259934E-20   2.09593100984588E-13
      4.56509442293061E-15  -1.00000000000000E+00  -1.00000000000000E+00   0.00000000000000E+00   0.00000000000000E+00
     -6.83299391208849E-22  -2.09593176820894E-13  -2.09593177504193E-13  -2.79153397913707E-15   0.00000000000000E+00
      0.00000000000000E+00   0.00000000000000E+00   0.00000000000000E+00  -1.95264680566197E-26   7.65196242276566E-20
      7.65196047011885E-20  -1.71142236696173E-15
      1.55080594622954E-01
      6.12298513442615E-01   6.12298513442615E-01   0.00000000000000E+00   0.00000000000000E+00   7.75374888821271E-36
     -7.75374888821271E-36   0.00000000000000E+00  -2.12703625209862E-16   0.00000000000000E+00   0.00000000000000E+00
      0.00000000000000E+00   0.00000000000000E+00   2.09511604015072E-13  -8.66103705795674E-20   2.09511517404702E-13
      4.67851818715779E-15  -1.00000000000000E+00  -1.00000000000000E+00   0.00000000000000E+00   0.00000000000000E+00
     -6.83301396314365E-22  -2.09511613748907E-13  -2.09511614432209E-13  -2.77266191621279E-15   0.00000000000000E+00
      0.00000000000000E+00   0.00000000000000E+00   0.00000000000000E+00  -1.59870298039614E-27   9.70275084408861E-20
      9.70275068421831E-20  -1.69315264573514E-15
      1.93773493748353E-01
      5.15566265629118E-01   5.15566265629118E-01   0.00000000000000E+00   0.00000000000000E+00   7.89611513290589E-36
     -7.89611513290589E-36   0.00000000000000E+00  -3.98754738268362E-16   0.00000000000000E+00   0.00000000000000E+00
      0.00000000000000E+00   0.00000000000000E+00   2.09400503954975E-13   5.48674961165937E-21   2.09400509441725E-13
      4.81758623774759E-15  -1.00000000000000E+00  -1.00000000000000E+00   0.00000000000000E+00   0.00000000000000E+00
     -6.83303680049822E-22  -2.09400525683021E-13  -2.09400526366325E-13  -2.74879706879499E-15   0.00000000000000E+00
      0.00000000000000E+00   0.00000000000000E+00   0.00000000000000E+00   8.70750449519741E-27   1.69245915908796E-20
      1.69246002983841E-20  -1.67003443068422E-15
      2.00000000000000E-01
      5.00000000000000E-01   5.00000000000000E-01   0.00000000000000E+00   0.00000000000000E+00   7.77582006508170E-36
     -7.77582006508170E-36   0.00000000000000E+00  -4.28316697322806E-16   0.00000000000000E+00   0.00000000000000E+00
      0.00000000000000E+00   0.00000000000000E+00   2.09381437941183E-13  -7.45210988840855E-18   2.09373985831295E-13
      4.83956923947313E-15  -1.00000000000000E+00  -1.00000000000000E+00   0.00000000000000E+00   0.00000000000000E+00
     -6.83304009358480E-22  -2.09381324912998E-13  -2.09381325596302E-13  -2.74494805397058E-15   0.00000000000000E+00
      0.00000000000000E+00   0.00000000000000E+00   0.00000000000000E+00  -1.15208203107445E-26   7.33976501902188E-18
      7.33976500750106E-18  -1.66630448817974E-15
      2.48753052898003E-01
      3.78117367754993E-01   3.78117367754993E-01   0.00000000000000E+00   0.00000000000000E+00   7.67607343230940E-36
     -7.67607343230940E-36   0.00000000000000E+00  -6.56279708577008E-16   0.00000000000000E+00   0.00000000000000E+00
      0.00000000000000E+00   0.00000000000000E+00   2.09218452892157E-13   1.37691802675675E-20   2.09218466661337E-13
      5.00802374522431E-15  -1.00000000000000E+00  -1.00000000000000E+00   0.00000000000000E+00   0.00000000000000E+00
     -6.83306785460338E-22  -2.09218488465555E-13  -2.09218489148862E-13  -2.71473140118074E-15   0.00000000000000E+00
      0.00000000000000E+00   0.00000000000000E+00   0.00000000000000E+00  -3.57580047327060E-27   2.24875278958045E-20
      2.24875243200040E-20  -1.63701263546657E-15
      3.00000000000000E-01
      2.50000000000000E-01   2.50000000000000E-01   0.00000000000000E+00   0.00000000000000E+00   7.49676961658461E-36
     -7.49676961658461E-36   0.00000000000000E+00  -8.89561746702742E-16   0.00000000000000E+00   0.00000000000000E+00
      0.00000000000000E+00   0.00000000000000E+00   2.09024445359155E-13   3.58637884139386E-20   2.09024481222944E-13
      5.17845908024849E-15  -1.00000000000000E+00  -1.00000000000000E+00   0.00000000000000E+00   0.00000000000000E+00
     -6.83310136642032E-22  -2.09024459928001E-13  -2.09024460611311E-13  -2.68282585908813E-15   0.00000000000000E+00
      0.00000000000000E+00   0.00000000000000E+00   0.00000000000000E+00   2.73564470970042E-26  -2.06116599183479E-20
     -2.06116325619008E-20  -1.60607147445762E-15
      3.60453785593523E-01
      9.88655360161916E-02   9.88655360161916E-02   0.00000000000000E+00   0.00000000000000E+00   7.54345540715806E-36
     -7.54345540715806E-36   0.00000000000000E+00  -1.15717256845972E-15   0.00000000000000E+00   0.00000000000000E+00
      0.00000000000000E+00   0.00000000000000E+00   2.08794999049475E-13   9.99731855884770E-20   2.08795099022660E-13
      5.37159024431507E-15  -1.00000000000000E+00  -1.00000000000000E+00   0.00000000000000E+00   0.00000000000000E+00
     -6.83313914884626E-22  -2.08795033421867E-13  -2.08795034105181E-13  -2.64501513917405E-15   0.00000000000000E+00
      0.00000000000000E+00   0.00000000000000E+00   0.00000000000000E+00   1.36034037588373E-26  -6.49174931413657E-20
     -6.49174795379619E-20  -1.56940253668130E-15
      4.00000000000000E-01
      0.00000000000000E+00   0.00000000000000E+00   0.00000000000000E+00   0.00000000000000E+00   7.61300386549551E-36
     -7.61300386549551E-36   0.00000000000000E+00  -1.32817430943739E-15   0.00000000000000E+00   0.00000000000000E+00
      0.00000000000000E+00   0.00000000000000E+00   2.08664502381486E-13  -3.05125625520931E-19   2.08664197255861E-13
      5.49369505730820E-15  -1.00000000000000E+00  -1.00000000000000E+00   0.00000000000000E+00   0.00000000000000E+00
     -6.83316355394489E-22  -2.08664565972064E-13  -2.08664566655381E-13  -2.62018767784390E-15   0.00000000000000E+00
      0.00000000000000E+00   0.00000000000000E+00   0.00000000000000E+00  -8.47983939256825E-27   3.69399528587286E-19
      3.69399520107447E-19  -1.54533307002691E-15
      4.74962694135969E-01
     -1.87406735339922E-01  -1.87406735339922E-01   0.00000000000000E+00   0.00000000000000E+00   7.54565528133765E-36
     -7.54565528133765E-36   0.00000000000000E+00  -1.64433156638747E-15   0.00000000000000E+00   0.00000000000000E+00
      0.00000000000000E+00   0.00000000000000E+00   2.08471678758261E-13  -1.05977679618977E-19   2.08471572780581E-13
      5.71684709073284E-15  -1.00000000000000E+00  -1.00000000000000E+00   0.00000000000000E+00   0.00000000000000E+00
     -6.83321148447499E-22  -2.08471931520419E-13  -2.08471932203740E-13  -2.57294208898774E-15   0.00000000000000E+00
      0.00000000000000E+00   0.00000000000000E+00   0.00000000000000E+00  -8.50279427171260E-27   3.59423167567514E-19
      3.59423159064719E-19  -1.49957343535761E-15
      5.00000000000000E-01
     -2.50000000000000E-01  -2.50000000000000E-01   0.00000000000000E+00   0.00000000000000E+00   7.51536894627372E-36
     -7.51536894627372E-36   0.00000000000000E+00  -1.74779427326408E-15   0.00000000000000E+00   0.00000000000000E+00
      0.00000000000000E+00   0.00000000000000E+00   2.08417436557044E-13  -1.31233589349608E-19   2.08417305323454E-13
      5.78916910950405E-15  -1.00000000000000E+00  -1.00000000000000E+00   0.00000000000000E+00   0.00000000000000E+00
     -6.83322698989641E-22  -2.08417946974440E-13  -2.08417947657763E-13  -2.55711306142480E-15   0.00000000000000E+00
      0.00000000000000E+00   0.00000000000000E+00   0.00000000000000E+00  -1.97488551829459E-26   6.42334328418409E-19
      6.42334308669554E-19  -1.48426177481516E-15
      5.92953740728601E-01
     -4.82384351821504E-01  -4.82384351821504E-01   0.00000000000000E+00   0.00000000000000E+00   7.79933340429156E-36
     -7.79933340429156E-36   0.00000000000000E+00  -2.12388284173800E-15   0.00000000000000E+00   0.00000000000000E+00
      0.00000000000000E+00   0.00000000000000E+00   2.08229478794042E-13   1.40261324535155E-20   2.08229492820175E-13
      6.04940199918574E-15  -1.00000000000000E+00  -1.00000000000000E+00   0.00000000000000E+00   0.00000000000000E+00
     -6.83328611918699E-22  -2.08237703165165E-13  -2.08237703848494E-13  -2.49815472654942E-15   0.00000000000000E+00
      0.00000000000000E+00   0.00000000000000E+00   0.00000000000000E+00  -2.49800790939246E-26   8.21102834427449E-18
      8.21102831929441E-18  -1.42736443089833E-15
      6.00000000000000E-01
     -5.00000000000000E-01  -5.00000000000000E-01   0.00000000000000E+00   0.00000000000000E+00   8.37987438903032E-36
     -8.37987438903032E-36   0.00000000000000E+00  -2.15192593475430E-15   0.00000000000000E+00   0.00000000000000E+00
      0.00000000000000E+00   0.00000000000000E+00   2.08217087822577E-13  -4.00496936441121E-16   2.07816590886136E-13
      6.06865122734811E-15  -1.00000000000000E+00  -1.00000000000000E+00   0.00000000000000E+00   0.00000000000000E+00
     -6.83329189882691E-22  -2.08223517078276E-13  -2.08223517761605E-13  -2.49367403895443E-15   0.00000000000000E+00
      0.00000000000000E+00   0.00000000000000E+00   0.00000000000000E+00  -1.14157578714221E-26   4.06926875481468E-16
      4.06926875470052E-16  -1.42305125363939E-15
      7.00000000000000E-01
     -7.50000000000000E-01  -7.50000000000000E-01   0.00000000000000E+00   0.00000000000000E+00   1.23078162638090E-35
     -1.23078162638090E-35   0.00000000000000E+00  -2.54362218913487E-15   0.00000000000000E+00   0.00000000000000E+00
      0.00000000000000E+00   0.00000000000000E+00   2.08119684852665E-13  -2.42205134119220E-19   2.08119442647531E-13
      6.33547274340393E-15  -1.00000000000000E+00  -1.00000000000000E+00   0.00000000000000E+00   0.00000000000000E+00
     -6.83335626079807E-22  -2.08427226499797E-13  -2.08427227183133E-13  -2.42992962529030E-15   0.00000000000000E+00
      0.00000000000000E+00   0.00000000000000E+00   0.00000000000000E+00  -3.22216058626704E-27   3.07784535604595E-16
      3.07784535601373E-16  -1.36192092897875E-15
      8.00000000000000E-01
     -1.00000000000000E+00  -1.00000000000000E+00   0.00000000000000E+00   0.00000000000000E+00   7.82020674626887E-36
     -7.82020674626887E-36   0.00000000000000E+00  -2.92399564861937E-15   0.00000000000000E+00   0.00000000000000E+00
      0.00000000000000E+00   0.00000000000000E+00   2.08458093243495E-13   5.87399508111924E-19   2.08458680643003E-13
      6.59107183449806E-15  -1.00000000000000E+00  -1.00000000000000E+00   0.00000000000000E+00   0.00000000000000E+00
     -6.83342196184105E-22  -2.20844692363692E-13  -2.20844693047034E-13  -2.36593034485935E-15   0.00000000000000E+00
      0.00000000000000E+00   0.00000000000000E+00   0.00000000000000E+00  -3.93768854385594E-26   1.23860124040704E-14
      1.23860124040311E-14  -1.30114584101933E-15
      9.00000000000000E-01
     -1.25000000000000E+00  -1.25000000000000E+00   0.00000000000000E+00   0.00000000000000E+00   7.82378964895614E-36
     -7.82378964895614E-36   0.00000000000000E+00  -3.29257270368636E-15   0.00000000000000E+00   0.00000000000000E+00
      0.00000000000000E+00   0.00000000000000E+00   2.10071270892117E-13  -2.07616654227107E-18   2.10069194725575E-13
      6.83544243062888E-15  -1.00000000000000E+00  -1.00000000000000E+00   0.00000000000000E+00   0.00000000000000E+00
     -6.83348855079163E-22  -8.84040179172669E-13  -8.84040179856018E-13  -2.30173753871444E-15   0.00000000000000E+00
      0.00000000000000E+00   0.00000000000000E+00   0.00000000000000E+00  -5.72222744297650E-27   6.73970985130448E-13
      6.73970985130442E-13  -1.24113218822810E-15
      1.00000000000000E+00
     -1.50000000000000E+00  -1.50000000000000E+00   0.00000000000000E+00   0.00000000000000E+00   7.63308125034297E-36
     -7.63308125034297E-36   0.00000000000000E+00  -3.65021952855041E-15   0.00000000000000E+00   0.00000000000000E+00
      0.00000000000000E+00   0.00000000000000E+00   2.14050851116884E-13  -4.54732484184077E-19   2.14050396384400E-13
      7.07020644147125E-15  -1.00000000000000E+00  -1.00000000000000E+00   0.00000000000000E+00   0.00000000000000E+00
     -6.83355491210000E-22  -4.89090619299722E-11  -4.89090619306555E-11  -2.23744160950441E-15   0.00000000000000E+00
      0.00000000000000E+00   0.00000000000000E+00   0.00000000000000E+00  -6.18995584011850E-27   4.86950115342712E-11
      4.86950115342712E-11  -1.18254530341644E-15
}
