DF-ISE text

Info {
  version   = 1.0
  type      = xyplot
  datasets  = [
    "time"
    "gate OuterVoltage" "gate InnerVoltage" "gate QuasiFermiPotential" "gate DisplacementCurrent" "gate eCurrent"
    "gate hCurrent" "gate TotalCurrent" "gate Charge" "substrate OuterVoltage" "substrate InnerVoltage"
    "substrate QuasiFermiPotential" "substrate DisplacementCurrent" "substrate eCurrent" "substrate hCurrent" "substrate TotalCurrent"
    "substrate Charge" "drain OuterVoltage" "drain InnerVoltage" "drain QuasiFermiPotential" "drain DisplacementCurrent"
    "drain eCurrent" "drain hCurrent" "drain TotalCurrent" "drain Charge" "source OuterVoltage"
    "source InnerVoltage" "source QuasiFermiPotential" "source DisplacementCurrent" "source eCurrent" "source hCurrent"
    "source TotalCurrent" "source Charge" ]
  functions = [
    Time
    OuterVoltage InnerVoltage QuasiFermiPotential DisplacementCurrent eCurrent
    hCurrent TotalCurrent Charge OuterVoltage InnerVoltage
    QuasiFermiPotential DisplacementCurrent eCurrent hCurrent TotalCurrent
    Charge OuterVoltage InnerVoltage QuasiFermiPotential DisplacementCurrent
    eCurrent hCurrent TotalCurrent Charge OuterVoltage
    InnerVoltage QuasiFermiPotential DisplacementCurrent eCurrent hCurrent
    TotalCurrent Charge ]
}

Data {
      0.00000000000000E+00
      1.00000000000000E+00   1.00000000000000E+00   0.00000000000000E+00   0.00000000000000E+00   2.57038271256703E-36
     -2.57038271256703E-36   0.00000000000000E+00   8.76511276982427E-16   0.00000000000000E+00   0.00000000000000E+00
      0.00000000000000E+00   0.00000000000000E+00   1.07649902988977E-14   2.33795792633501E-20   1.07650136784770E-14
      3.25059012017892E-15  -1.00000000000000E+00  -1.00000000000000E+00   0.00000000000000E+00   0.00000000000000E+00
     -1.70637156346747E-21  -1.07651359830450E-14  -1.07651376894165E-14  -2.54950488092440E-15   0.00000000000000E+00
      0.00000000000000E+00   0.00000000000000E+00   0.00000000000000E+00   7.38383107844525E-29   1.24010939517422E-19
      1.24010939591260E-19  -1.57759651623694E-15
      1.00000000000000E-03
      9.97500000000000E-01   9.97500000000000E-01   0.00000000000000E+00   0.00000000000000E+00   2.52704092048988E-36
     -2.52704092048988E-36   0.00000000000000E+00   8.74200343521667E-16   0.00000000000000E+00   0.00000000000000E+00
      0.00000000000000E+00   0.00000000000000E+00   1.07543892911645E-14   7.87155084737874E-20   1.07544680066730E-14
      3.25137671299143E-15  -1.00000000000000E+00  -1.00000000000000E+00   0.00000000000000E+00   0.00000000000000E+00
     -1.70637308711269E-21  -1.07546680120739E-14  -1.07546697184470E-14  -2.54874879214268E-15   0.00000000000000E+00
      0.00000000000000E+00   0.00000000000000E+00   0.00000000000000E+00   2.20857112993220E-28   2.01711773796853E-19
      2.01711774017710E-19  -1.57682826437042E-15
      2.28000000000000E-03
      9.94300000000000E-01   9.94300000000000E-01   0.00000000000000E+00   0.00000000000000E+00   2.58361938348939E-36
     -2.58361938348939E-36   0.00000000000000E+00   8.71245888139732E-16   0.00000000000000E+00   0.00000000000000E+00
      0.00000000000000E+00   0.00000000000000E+00   1.07409002047282E-14   6.17170424773096E-20   1.07409619217707E-14
      3.25237933507213E-15  -1.00000000000000E+00  -1.00000000000000E+00   0.00000000000000E+00   0.00000000000000E+00
     -1.70637329231519E-21  -1.07410829848825E-14  -1.07410846912558E-14  -2.54778072111628E-15   0.00000000000000E+00
      0.00000000000000E+00   0.00000000000000E+00   0.00000000000000E+00  -3.81934443778630E-28   1.22769485476882E-19
      1.22769485094948E-19  -1.57584450209557E-15
      3.91840000000000E-03
      9.90204000000000E-01   9.90204000000000E-01   0.00000000000000E+00   0.00000000000000E+00   2.56587527512235E-36
     -2.56587527512235E-36   0.00000000000000E+00   8.67469944040769E-16   0.00000000000000E+00   0.00000000000000E+00
      0.00000000000000E+00   0.00000000000000E+00   1.07237657341455E-14   4.30396398947929E-21   1.07237700381095E-14
      3.25365582675615E-15  -1.00000000000000E+00  -1.00000000000000E+00   0.00000000000000E+00   0.00000000000000E+00
     -1.70637346429236E-21  -1.07239411090912E-14  -1.07239428154647E-14  -2.54654113723983E-15   0.00000000000000E+00
      0.00000000000000E+00   0.00000000000000E+00   0.00000000000000E+00  -3.30453077157851E-29   1.72777355286115E-19
      1.72777355253070E-19  -1.57458463355709E-15
      6.01555200000000E-03
      9.84961120000000E-01   9.84961120000000E-01   0.00000000000000E+00   0.00000000000000E+00   2.57516761891320E-36
     -2.57516761891320E-36   0.00000000000000E+00   8.62646084163295E-16   0.00000000000000E+00   0.00000000000000E+00
      0.00000000000000E+00   0.00000000000000E+00   1.07020495120310E-14  -1.18520587899798E-19   1.07019309914431E-14
      3.25527858407499E-15  -1.00000000000000E+00  -1.00000000000000E+00   0.00000000000000E+00   0.00000000000000E+00
     -1.70637372467282E-21  -1.07020195683134E-14  -1.07020212746871E-14  -2.54495373095713E-15   0.00000000000000E+00
      0.00000000000000E+00   0.00000000000000E+00   0.00000000000000E+00   4.07519492490842E-28   9.02832436589563E-20
      9.02832440664758E-20  -1.57297093728116E-15
      8.69990656000000E-03
      9.78250233600000E-01   9.78250233600000E-01   0.00000000000000E+00   0.00000000000000E+00   2.56964061461546E-36
     -2.56964061461546E-36   0.00000000000000E+00   8.56486672837360E-16   0.00000000000000E+00   0.00000000000000E+00
      0.00000000000000E+00   0.00000000000000E+00   1.06746072365116E-14   4.06936986687201E-20   1.06746479302103E-14
      3.25733764710501E-15  -1.00000000000000E+00  -1.00000000000000E+00   0.00000000000000E+00   0.00000000000000E+00
     -1.70637413519671E-21  -1.06747865116556E-14  -1.06747882180297E-14  -2.54292064714539E-15   0.00000000000000E+00
      0.00000000000000E+00   0.00000000000000E+00   0.00000000000000E+00   4.89261607526058E-28   1.40287818956286E-19
      1.40287819445547E-19  -1.57090367279698E-15
      1.21358803968000E-02
      9.69660299008000E-01   9.69660299008000E-01   0.00000000000000E+00   0.00000000000000E+00   2.53285461983336E-36
     -2.53285461983336E-36   0.00000000000000E+00   8.48627007093705E-16   0.00000000000000E+00   0.00000000000000E+00
      0.00000000000000E+00   0.00000000000000E+00   1.06400634959608E-14   1.40221355039415E-19   1.06402037173159E-14
      3.25994409347748E-15  -1.00000000000000E+00  -1.00000000000000E+00   0.00000000000000E+00   0.00000000000000E+00
     -1.70637460000571E-21  -1.06403056704165E-14  -1.06403073767911E-14  -2.54031634238282E-15   0.00000000000000E+00
      0.00000000000000E+00   0.00000000000000E+00   0.00000000000000E+00  -2.00172833917097E-29   1.03659475275870E-19
      1.03659475255853E-19  -1.56825475818836E-15
      1.65339269079040E-02
      9.58665182730240E-01   9.58665182730240E-01   0.00000000000000E+00   0.00000000000000E+00   2.55504592225903E-36
     -2.55504592225903E-36   0.00000000000000E+00   8.38605692672418E-16   0.00000000000000E+00   0.00000000000000E+00
      0.00000000000000E+00   0.00000000000000E+00   1.05968044030080E-14   1.46954780437052E-19   1.05969513577884E-14
      3.26323354968005E-15  -1.00000000000000E+00  -1.00000000000000E+00   0.00000000000000E+00   0.00000000000000E+00
     -1.70637524043259E-21  -1.05971200827120E-14  -1.05971217890873E-14  -2.53697965696908E-15   0.00000000000000E+00
      0.00000000000000E+00   0.00000000000000E+00   0.00000000000000E+00  -3.16692746875933E-28   1.70431299144144E-19
      1.70431298827451E-19  -1.56485958538338E-15
      2.21634264421171E-02
      9.44591433894707E-01   9.44591433894707E-01   0.00000000000000E+00   0.00000000000000E+00   2.51548186963925E-36
     -2.51548186963925E-36   0.00000000000000E+00   8.25840464493090E-16   0.00000000000000E+00   0.00000000000000E+00
      0.00000000000000E+00   0.00000000000000E+00   1.05430036088639E-14  -3.29716401295200E-19   1.05426738924626E-14
      3.26736950445338E-15  -1.00000000000000E+00  -1.00000000000000E+00   0.00000000000000E+00   0.00000000000000E+00
     -1.70637598371784E-21  -1.05431950924419E-14  -1.05431967988179E-14  -2.53270356585167E-15   0.00000000000000E+00
      0.00000000000000E+00   0.00000000000000E+00   0.00000000000000E+00  -3.12092773577104E-28   5.22906355545534E-19
      5.22906355233441E-19  -1.56050640309480E-15
      2.93691858459099E-02
      9.26577035385225E-01   9.26577035385225E-01   0.00000000000000E+00   0.00000000000000E+00   2.55561707486925E-36
     -2.55561707486925E-36   0.00000000000000E+00   8.09598425401661E-16   0.00000000000000E+00   0.00000000000000E+00
      0.00000000000000E+00   0.00000000000000E+00   1.04767076451606E-14  -2.45542037205528E-18   1.04742522247886E-14
      3.27254599885028E-15  -1.00000000000000E+00  -1.00000000000000E+00   0.00000000000000E+00   0.00000000000000E+00
     -1.70637684743595E-21  -1.04770657271017E-14  -1.04770674334786E-14  -2.52722190587529E-15   0.00000000000000E+00
      0.00000000000000E+00   0.00000000000000E+00   0.00000000000000E+00  -4.86366473739658E-27   2.81520869490886E-18
      2.81520869004520E-18  -1.55492251837664E-15
      3.85925578827647E-02
      9.03518605293088E-01   9.03518605293088E-01   0.00000000000000E+00   0.00000000000000E+00   2.57781705688391E-36
     -2.57781705688391E-36   0.00000000000000E+00   7.88959206812146E-16   0.00000000000000E+00   0.00000000000000E+00
      0.00000000000000E+00   0.00000000000000E+00   1.03959958380815E-14  -1.63232129714432E-17   1.03796726251101E-14
      3.27898929002872E-15  -1.00000000000000E+00  -1.00000000000000E+00   0.00000000000000E+00   0.00000000000000E+00
     -1.70637733018813E-21  -1.03962428007615E-14  -1.03962445071388E-14  -2.52019215846203E-15   0.00000000000000E+00
      0.00000000000000E+00   0.00000000000000E+00   0.00000000000000E+00  -2.25197650508223E-26   1.65718820511767E-17
      1.65718820286569E-17  -1.54775633837883E-15
      5.03984740899388E-02
      8.74003814775153E-01   8.74003814775153E-01   0.00000000000000E+00   0.00000000000000E+00   2.58582643524142E-36
     -2.58582643524142E-36   0.00000000000000E+00   7.62768643621551E-16   0.00000000000000E+00   0.00000000000000E+00
      0.00000000000000E+00   0.00000000000000E+00   1.02991209428000E-14   5.56659229756656E-20   1.02991766087229E-14
      3.28695842560033E-15  -1.00000000000000E+00  -1.00000000000000E+00   0.00000000000000E+00   0.00000000000000E+00
     -1.70637989685210E-21  -1.02994753273006E-14  -1.02994770336805E-14  -2.51117308177127E-15   0.00000000000000E+00
      0.00000000000000E+00   0.00000000000000E+00   0.00000000000000E+00   4.42548726209258E-29   3.00424957503302E-19
      3.00424957547557E-19  -1.53855398745062E-15
      6.52739285109782E-02
      8.36815178722555E-01   8.36815178722555E-01   0.00000000000000E+00   0.00000000000000E+00   2.57154708446292E-36
     -2.57154708446292E-36   0.00000000000000E+00   7.30094987804369E-16   0.00000000000000E+00   0.00000000000000E+00
      0.00000000000000E+00   0.00000000000000E+00   1.01862643898350E-14   1.65005196663826E-20   1.01862808903547E-14
      3.29659583128162E-15  -1.00000000000000E+00  -1.00000000000000E+00   0.00000000000000E+00   0.00000000000000E+00
     -1.70638194691339E-21  -1.01867293964371E-14  -1.01867311028190E-14  -2.49977678475377E-15   0.00000000000000E+00
      0.00000000000000E+00   0.00000000000000E+00   0.00000000000000E+00  -2.23979431184461E-28   4.50212464580332E-19
      4.50212464356352E-19  -1.52691403433222E-15
      8.40170010814878E-02
      7.89957497296280E-01   7.89957497296280E-01   0.00000000000000E+00   0.00000000000000E+00   2.57178725512820E-36
     -2.57178725512820E-36   0.00000000000000E+00   6.89375750117735E-16   0.00000000000000E+00   0.00000000000000E+00
      0.00000000000000E+00   0.00000000000000E+00   1.00552421534760E-14   1.43614938825163E-19   1.00553857684148E-14
      3.30817385019152E-15  -1.00000000000000E+00  -1.00000000000000E+00   0.00000000000000E+00   0.00000000000000E+00
     -1.70638452441205E-21  -1.00558511156296E-14  -1.00558528220141E-14  -2.48536867769702E-15   0.00000000000000E+00
      0.00000000000000E+00   0.00000000000000E+00   0.00000000000000E+00   2.48759646037174E-28   4.67053599007018E-19
      4.67053599255777E-19  -1.51218092261223E-15
      1.00000000000000E-01
      7.50000000000000E-01   7.50000000000000E-01   0.00000000000000E+00   0.00000000000000E+00   2.53431842564896E-36
     -2.53431842564896E-36   0.00000000000000E+00   6.54991146171250E-16   0.00000000000000E+00   0.00000000000000E+00
      0.00000000000000E+00   0.00000000000000E+00   9.95031737819783E-15   1.48876848208019E-20   9.95033226588265E-15
      3.31761305718237E-15  -1.00000000000000E+00  -1.00000000000000E+00   0.00000000000000E+00   0.00000000000000E+00
     -1.70638673702963E-21  -9.95135828060190E-15  -9.95135998698863E-15  -2.47304141601174E-15   0.00000000000000E+00
      0.00000000000000E+00   0.00000000000000E+00   0.00000000000000E+00   4.73750481911485E-29   1.02772110592120E-18
      1.02772110596858E-18  -1.49956278734188E-15
      1.23616271438842E-01
      6.90959321402895E-01   6.90959321402895E-01   0.00000000000000E+00   0.00000000000000E+00   2.55159596918015E-36
     -2.55159596918015E-36   0.00000000000000E+00   6.04659855621810E-16   0.00000000000000E+00   0.00000000000000E+00
      0.00000000000000E+00   0.00000000000000E+00   9.80456047716929E-15   1.06201180542471E-19   9.80466667834983E-15
      3.33093574673320E-15  -1.00000000000000E+00  -1.00000000000000E+00   0.00000000000000E+00   0.00000000000000E+00
     -1.70639000540213E-21  -9.80746023599240E-15  -9.80746194238241E-15  -2.45476147717401E-15   0.00000000000000E+00
      0.00000000000000E+00   0.00000000000000E+00   0.00000000000000E+00   3.57231620388167E-28   2.79526403224332E-18
      2.79526403260055E-18  -1.48083412518099E-15
      1.53372773451783E-01
      6.16568066370542E-01   6.16568066370542E-01   0.00000000000000E+00   0.00000000000000E+00   2.55649053490785E-36
     -2.55649053490785E-36   0.00000000000000E+00   5.41895000769888E-16   0.00000000000000E+00   0.00000000000000E+00
      0.00000000000000E+00   0.00000000000000E+00   9.63700237749355E-15  -1.10309500794484E-19   9.63689206799276E-15
      3.34683559787079E-15  -1.00000000000000E+00  -1.00000000000000E+00   0.00000000000000E+00   0.00000000000000E+00
     -1.70639411510402E-21  -9.64863944903242E-15  -9.64864115542654E-15  -2.43162346863734E-15   0.00000000000000E+00
      0.00000000000000E+00   0.00000000000000E+00   0.00000000000000E+00   4.86800150069097E-29   1.17490874337394E-17
      1.17490874337881E-17  -1.45710713000332E-15
      1.90270835947830E-01
      5.24322910130425E-01   5.24322910130425E-01   0.00000000000000E+00   0.00000000000000E+00   2.51974685863846E-36
     -2.51974685863846E-36   0.00000000000000E+00   4.64844640910623E-16   0.00000000000000E+00   0.00000000000000E+00
      0.00000000000000E+00   0.00000000000000E+00   9.44559697953137E-15  -4.30266210878943E-21   9.44559267686926E-15
      3.36544388461714E-15  -1.00000000000000E+00  -1.00000000000000E+00   0.00000000000000E+00   0.00000000000000E+00
     -1.70639922460992E-21  -9.52363432860517E-15  -9.52363603500439E-15  -2.40277714995979E-15   0.00000000000000E+00
      0.00000000000000E+00   0.00000000000000E+00   0.00000000000000E+00   8.85257363117053E-29   7.80433581350546E-17
      7.80433581351431E-17  -1.42751137556797E-15
      2.00000000000000E-01
      5.00000000000000E-01   5.00000000000000E-01   0.00000000000000E+00   0.00000000000000E+00   2.52541486527643E-36
     -2.52541486527643E-36   0.00000000000000E+00   4.44645560778738E-16   0.00000000000000E+00   0.00000000000000E+00
      0.00000000000000E+00   0.00000000000000E+00   9.39658041750275E-15   2.04078902505304E-19   9.39678449640526E-15
      3.37017650020920E-15  -1.00000000000000E+00  -1.00000000000000E+00   0.00000000000000E+00   0.00000000000000E+00
     -1.70640057383843E-21  -9.52775441008826E-15  -9.52775611648884E-15  -2.39514311062217E-15   0.00000000000000E+00
      0.00000000000000E+00   0.00000000000000E+00   0.00000000000000E+00   3.00476701564637E-28   1.30971620083290E-16
      1.30971620083591E-16  -1.41967895036576E-15
      2.45753597495098E-01
      3.85616006262254E-01   3.85616006262254E-01   0.00000000000000E+00   0.00000000000000E+00   2.57372648844412E-36
     -2.57372648844412E-36   0.00000000000000E+00   3.50196569610803E-16   0.00000000000000E+00   0.00000000000000E+00
      0.00000000000000E+00   0.00000000000000E+00   9.17322811079542E-15   8.83384523364025E-20   9.17331644924775E-15
      3.39159526253274E-15  -1.00000000000000E+00  -1.00000000000000E+00   0.00000000000000E+00   0.00000000000000E+00
     -1.70640690775871E-21  -1.07960443341675E-14  -1.07960460405744E-14  -2.35908694976848E-15   0.00000000000000E+00
      0.00000000000000E+00   0.00000000000000E+00   0.00000000000000E+00  -3.82320939611606E-28   1.62272959132704E-15
      1.62272959132666E-15  -1.38270488237507E-15
      2.96997626689608E-01
      2.57505933275979E-01   2.57505933275979E-01   0.00000000000000E+00   0.00000000000000E+00   2.56080437411470E-36
     -2.56080437411470E-36   0.00000000000000E+00   2.45298305481017E-16   0.00000000000000E+00   0.00000000000000E+00
      0.00000000000000E+00   0.00000000000000E+00   8.93461303133478E-15  -3.52811988087935E-20   8.93457775013597E-15
      3.41416578777187E-15  -1.00000000000000E+00  -1.00000000000000E+00   0.00000000000000E+00   0.00000000000000E+00
     -1.70633385675441E-21  -3.94124200243651E-14  -3.94124217306989E-14  -2.31839683403847E-15   0.00000000000000E+00
      0.00000000000000E+00   0.00000000000000E+00   0.00000000000000E+00  -3.63916283195340E-28   3.04778439805633E-14
      3.04778439805629E-14  -1.34106725921442E-15
      3.00000000000000E-01
      2.50000000000000E-01   2.50000000000000E-01   0.00000000000000E+00   0.00000000000000E+00   2.55305165150458E-36
     -2.55305165150458E-36   0.00000000000000E+00   2.39176356772419E-16   0.00000000000000E+00   0.00000000000000E+00
      0.00000000000000E+00   0.00000000000000E+00   8.92056019717643E-15  -2.17585008634161E-17   8.89880169631301E-15
      3.41544835447801E-15  -1.00000000000000E+00  -1.00000000000000E+00   0.00000000000000E+00   0.00000000000000E+00
     -1.70640909409731E-21  -4.52219548637440E-14  -4.52219565701530E-14  -2.31600264433046E-15   0.00000000000000E+00
      0.00000000000000E+00   0.00000000000000E+00   0.00000000000000E+00  -1.43309808764538E-28   3.63231548738402E-14
      3.63231548738401E-14  -1.33862206691997E-15
      3.63542596201192E-01
      9.11435094970189E-02   9.11435094970189E-02   0.00000000000000E+00   0.00000000000000E+00   2.53029227707533E-36
     -2.53029227707533E-36   0.00000000000000E+00   1.10058018961946E-16   0.00000000000000E+00   0.00000000000000E+00
      0.00000000000000E+00   0.00000000000000E+00   8.61351675512371E-15  -5.22388928805751E-19   8.61299436619491E-15
      3.44181442947813E-15  -1.00000000000000E+00  -1.00000000000000E+00   0.00000000000000E+00   0.00000000000000E+00
     -1.70642322842559E-21  -1.56334903961405E-12  -1.56334904132048E-12  -2.26506871813167E-15   0.00000000000000E+00
      0.00000000000000E+00   0.00000000000000E+00   0.00000000000000E+00  -6.33767297139866E-28   1.55473604695429E-12
      1.55473604695429E-12  -1.28680373030841E-15
      4.00000000000000E-01
      0.00000000000000E+00   0.00000000000000E+00   0.00000000000000E+00   0.00000000000000E+00   2.57364651024642E-36
     -2.57364651024642E-36   0.00000000000000E+00   3.62253135914700E-17   0.00000000000000E+00   0.00000000000000E+00
      0.00000000000000E+00   0.00000000000000E+00   8.47571713980353E-15   6.78379634359544E-19   8.47639551943789E-15
      3.45649170871785E-15  -1.00000000000000E+00  -1.00000000000000E+00   0.00000000000000E+00   0.00000000000000E+00
     -1.70642827454818E-21  -1.38789918445296E-11  -1.38789918462361E-11  -2.23562250576525E-15   0.00000000000000E+00
      0.00000000000000E+00   0.00000000000000E+00   0.00000000000000E+00   2.87932477246700E-28   1.38705154507166E-11
      1.38705154507166E-11  -1.25709451654408E-15
      4.76251115441431E-01
     -1.90627788603577E-01  -1.90627788603577E-01   0.00000000000000E+00   0.00000000000000E+00   2.53361012858106E-36
     -2.53361012858106E-36   0.00000000000000E+00  -1.18051066619759E-16   0.00000000000000E+00   0.00000000000000E+00
      0.00000000000000E+00   0.00000000000000E+00   8.20671681528332E-15   6.80941646860551E-19   8.20739775693019E-15
      3.48703632599670E-15  -1.00000000000000E+00  -1.00000000000000E+00   0.00000000000000E+00   0.00000000000000E+00
      3.46934692338567E-21  -1.38178477416062E-09  -1.38178477415715E-09  -2.17353139412276E-15   0.00000000000000E+00
      0.00000000000000E+00   0.00000000000000E+00   0.00000000000000E+00  -6.05669472332536E-28   1.38177656675939E-09
      1.38177656675939E-09  -1.19545386525418E-15
      5.00000000000000E-01
     -2.50000000000000E-01  -2.50000000000000E-01   0.00000000000000E+00   0.00000000000000E+00   2.54269208064036E-36
     -2.54269208064036E-36   0.00000000000000E+00  -1.66160534587008E-16   0.00000000000000E+00   0.00000000000000E+00
      0.00000000000000E+00   0.00000000000000E+00   8.11574084445264E-15  -2.93115775998331E-19   8.11544772867664E-15
      3.49676478585549E-15  -1.00000000000000E+00  -1.00000000000000E+00   0.00000000000000E+00   0.00000000000000E+00
     -1.65791827199942E-21  -5.76136477314139E-09  -5.76136477314305E-09  -2.15406028273335E-15   0.00000000000000E+00
      0.00000000000000E+00   0.00000000000000E+00   0.00000000000000E+00   9.65152219740851E-28   5.76135665769534E-09
      5.76135665769534E-09  -1.17654396853513E-15
      5.45750669264858E-01
     -3.64376673162146E-01  -3.64376673162146E-01   0.00000000000000E+00   0.00000000000000E+00   2.55807575045282E-36
     -2.55807575045282E-36   0.00000000000000E+00  -2.59356788837870E-16   0.00000000000000E+00   0.00000000000000E+00
      0.00000000000000E+00   0.00000000000000E+00   7.94153005542452E-15  -6.36033496352346E-19   7.94089402192817E-15
      3.51664545038979E-15  -1.00000000000000E+00  -1.00000000000000E+00   0.00000000000000E+00   0.00000000000000E+00
     -2.78538668571912E-21  -8.53734611024667E-08  -8.53734611024695E-08  -2.11639150574337E-15   0.00000000000000E+00
      0.00000000000000E+00   0.00000000000000E+00   0.00000000000000E+00   1.04250320416232E-26   8.53734531615759E-08
      8.53734531615759E-08  -1.14089715580855E-15
      5.72875334632429E-01
     -4.32188336581073E-01  -4.32188336581073E-01   0.00000000000000E+00   0.00000000000000E+00   2.54458335394834E-36
     -2.54458335394834E-36   0.00000000000000E+00  -3.15612334535121E-16   0.00000000000000E+00   0.00000000000000E+00
      0.00000000000000E+00   0.00000000000000E+00   7.87255039707329E-15  -3.02063315256063E-18   7.86952976392073E-15
      3.53013705722455E-15  -1.00000000000000E+00  -1.00000000000000E+00   0.00000000000000E+00   0.00000000000000E+00
     -1.69074443000245E-21  -3.78607176717378E-07  -3.78607176717379E-07  -2.09397936668255E-15   0.00000000000000E+00
      0.00000000000000E+00   0.00000000000000E+00   0.00000000000000E+00   5.00429748008876E-26   3.78607168847852E-07
      3.78607168847852E-07  -1.12054535600689E-15
      6.00000000000000E-01
     -5.00000000000000E-01  -5.00000000000000E-01   0.00000000000000E+00   0.00000000000000E+00   2.50558330842640E-36
     -2.50558330842640E-36   0.00000000000000E+00  -3.73717081022606E-16   0.00000000000000E+00   0.00000000000000E+00
      0.00000000000000E+00   0.00000000000000E+00   7.81494919463441E-15  -3.16187284459600E-18   7.81178732178982E-15
      3.54630219882038E-15  -1.00000000000000E+00  -1.00000000000000E+00   0.00000000000000E+00   0.00000000000000E+00
     -1.70655943495540E-21  -1.36845435158278E-06  -1.36845435158278E-06  -2.07154597627770E-15   0.00000000000000E+00
      0.00000000000000E+00   0.00000000000000E+00   0.00000000000000E+00   1.80585067433853E-25   1.36845434377100E-06
      1.36845434377100E-06  -1.10103914152007E-15
      6.32549598441085E-01
     -5.81373996102712E-01  -5.81373996102712E-01   0.00000000000000E+00   0.00000000000000E+00   2.50909837923719E-36
     -2.50909837923719E-36   0.00000000000000E+00  -4.46974610233673E-16   0.00000000000000E+00   0.00000000000000E+00
      0.00000000000000E+00   0.00000000000000E+00   7.75976778439988E-15   9.73605355128418E-19   7.76074138975501E-15
      3.57044729454896E-15  -1.00000000000000E+00  -1.00000000000000E+00   0.00000000000000E+00   0.00000000000000E+00
     -1.70711718169006E-21  -4.37823058730718E-06  -4.37823058730719E-06  -2.04465676213120E-15   0.00000000000000E+00
      0.00000000000000E+00   0.00000000000000E+00   0.00000000000000E+00   5.76481909281666E-25   4.37823057954649E-06
      4.37823057954649E-06  -1.07881592218409E-15
      6.71609116570387E-01
     -6.79022791425967E-01  -6.79022791425967E-01   0.00000000000000E+00   0.00000000000000E+00   2.54699923532030E-36
     -2.54699923532030E-36   0.00000000000000E+00  -5.39624750722396E-16   0.00000000000000E+00   0.00000000000000E+00
      0.00000000000000E+00   0.00000000000000E+00   7.72541956231911E-15  -1.10036455865565E-17   7.71441591673256E-15
      3.60562953734116E-15  -1.00000000000000E+00  -1.00000000000000E+00   0.00000000000000E+00   0.00000000000000E+00
     -1.70814013844161E-21  -1.11630164085352E-05  -1.11630164085352E-05  -2.01248260868449E-15   0.00000000000000E+00
      0.00000000000000E+00   0.00000000000000E+00   0.00000000000000E+00   1.47043152083236E-24   1.11630164008208E-05
      1.11630164008208E-05  -1.05352217793426E-15
      7.00000000000000E-01
     -7.50000000000000E-01  -7.50000000000000E-01   0.00000000000000E+00   0.00000000000000E+00   4.06451933207501E-36
     -4.06451933207501E-36   0.00000000000000E+00  -6.09377152984357E-16   0.00000000000000E+00   0.00000000000000E+00
      0.00000000000000E+00   0.00000000000000E+00   7.71596422607282E-15  -1.28594409069961E-18   7.71467828198212E-15
      3.63436417105963E-15  -1.00000000000000E+00  -1.00000000000000E+00   0.00000000000000E+00   0.00000000000000E+00
     -1.70917400010826E-21  -1.80305224705956E-05  -1.80305224705956E-05  -1.98916826107679E-15   0.00000000000000E+00
      0.00000000000000E+00   0.00000000000000E+00   0.00000000000000E+00   2.37551957889783E-24   1.80305224628810E-05
      1.80305224628810E-05  -1.03581875699848E-15
      7.47652612117748E-01
     -8.69131530294371E-01  -8.69131530294371E-01   0.00000000000000E+00   0.00000000000000E+00   2.48273964725695E-36
     -2.48273964725695E-36   0.00000000000000E+00  -7.29590363884960E-16   0.00000000000000E+00   0.00000000000000E+00
      0.00000000000000E+00   0.00000000000000E+00   7.71393780198522E-15  -8.81410227909264E-19   7.71305639175731E-15
      3.68678549978304E-15  -1.00000000000000E+00  -1.00000000000000E+00   0.00000000000000E+00   0.00000000000000E+00
     -1.71133469406115E-21  -3.23945705907421E-05  -3.23945705907421E-05  -1.95017743548969E-15   0.00000000000000E+00
      0.00000000000000E+00   0.00000000000000E+00   0.00000000000000E+00   4.26827096399860E-24   3.23945705830291E-05
      3.23945705830291E-05  -1.00701770040838E-15
      8.00000000000000E-01
     -1.00000000000000E+00  -1.00000000000000E+00   0.00000000000000E+00   0.00000000000000E+00   2.55315991220210E-36
     -2.55315991220210E-36   0.00000000000000E+00  -8.64826473835040E-16   0.00000000000000E+00   0.00000000000000E+00
      0.00000000000000E+00   0.00000000000000E+00   7.71860806019375E-15   8.05364863642866E-18   7.72666170883017E-15
      3.74872920976364E-15  -1.00000000000000E+00  -1.00000000000000E+00   0.00000000000000E+00   0.00000000000000E+00
     -1.71416062723564E-21  -5.11915756386906E-05  -5.11915756386906E-05  -1.90756649278765E-15   0.00000000000000E+00
      0.00000000000000E+00   0.00000000000000E+00   0.00000000000000E+00   6.74580676985174E-24   5.11915756309642E-05
      5.11915756309642E-05  -9.76336243140945E-16
      8.59089239026008E-01
     -1.14772309756502E+00  -1.14772309756502E+00   0.00000000000000E+00   0.00000000000000E+00   4.81802004696876E-36
     -4.81802004696876E-36   0.00000000000000E+00  -1.02028222979730E-15   0.00000000000000E+00   0.00000000000000E+00
      0.00000000000000E+00   0.00000000000000E+00   7.72876711033694E-15  -3.38170858394868E-13  -3.30442091284531E-13
      3.82263755446044E-15  -1.00000000000000E+00  -1.00000000000000E+00   0.00000000000000E+00   0.00000000000000E+00
     -1.71773854963236E-21  -7.50028408005794E-05  -7.50028408005794E-05  -1.85979114842725E-15   0.00000000000000E+00
      0.00000000000000E+00   0.00000000000000E+00   0.00000000000000E+00   9.88728506674502E-24   7.50028411310215E-05
      7.50028411310215E-05  -9.42564176235872E-16
      9.00000000000000E-01
     -1.25000000000000E+00  -1.25000000000000E+00   0.00000000000000E+00   0.00000000000000E+00   2.64076641953919E-36
     -2.64076641953919E-36   0.00000000000000E+00  -1.12924558236625E-15   0.00000000000000E+00   0.00000000000000E+00
      0.00000000000000E+00   0.00000000000000E+00   7.73916903709577E-15  -2.07822335810233E-17   7.71838680351475E-15
      3.87578376533444E-15  -1.00000000000000E+00  -1.00000000000000E+00   0.00000000000000E+00   0.00000000000000E+00
     -1.72038234755929E-21  -9.25953066261499E-05  -9.25953066261499E-05  -1.82695047796662E-15   0.00000000000000E+00
      0.00000000000000E+00   0.00000000000000E+00   0.00000000000000E+00   1.22067841409610E-23   9.25953066184315E-05
      9.25953066184315E-05  -9.19587705001555E-16
      9.74452441172770E-01
     -1.43613110293192E+00  -1.43613110293192E+00   0.00000000000000E+00   0.00000000000000E+00   2.59497948984283E-36