DF-ISE text

Info {
  version   = 1.0
  type      = xyplot
  datasets  = [
    "time"
    "gate OuterVoltage" "gate InnerVoltage" "gate QuasiFermiPotential" "gate DisplacementCurrent" "gate eCurrent"
    "gate hCurrent" "gate TotalCurrent" "gate Charge" "substrate OuterVoltage" "substrate InnerVoltage"
    "substrate QuasiFermiPotential" "substrate DisplacementCurrent" "substrate eCurrent" "substrate hCurrent" "substrate TotalCurrent"
    "substrate Charge" "drain OuterVoltage" "drain InnerVoltage" "drain QuasiFermiPotential" "drain DisplacementCurrent"
    "drain eCurrent" "drain hCurrent" "drain TotalCurrent" "drain Charge" "source OuterVoltage"
    "source InnerVoltage" "source QuasiFermiPotential" "source DisplacementCurrent" "source eCurrent" "source hCurrent"
    "source TotalCurrent" "source Charge" ]
  functions = [
    Time
    OuterVoltage InnerVoltage QuasiFermiPotential DisplacementCurrent eCurrent
    hCurrent TotalCurrent Charge OuterVoltage InnerVoltage
    QuasiFermiPotential DisplacementCurrent eCurrent hCurrent TotalCurrent
    Charge OuterVoltage InnerVoltage QuasiFermiPotential DisplacementCurrent
    eCurrent hCurrent TotalCurrent Charge OuterVoltage
    InnerVoltage QuasiFermiPotential DisplacementCurrent eCurrent hCurrent
    TotalCurrent Charge ]
}

Data {
      0.00000000000000E+00
     -1.00000000000000E+00  -1.00000000000000E+00   0.00000000000000E+00   0.00000000000000E+00   3.28657999946930E-35
     -3.28657999946930E-35   0.00000000000000E+00  -3.85584411824595E-16   0.00000000000000E+00   0.00000000000000E+00
      0.00000000000000E+00   0.00000000000000E+00   3.73346618467018E-23  -1.26161936052274E-14  -1.26161935678927E-14
     -4.90117797691097E-15   1.00000000000000E+00   1.00000000000000E+00   0.00000000000000E+00   0.00000000000000E+00
      1.26161856401298E-14   8.30658107699797E-21   1.26161939467108E-14   3.26386312123641E-15   0.00000000000000E+00
      0.00000000000000E+00   0.00000000000000E+00   0.00000000000000E+00  -3.78806100750646E-22  -1.20185048123094E-26
     -3.78818119255458E-22   2.02289926749916E-15
      1.00000000000000E-03
     -9.97500000000000E-01  -9.97500000000000E-01   0.00000000000000E+00   0.00000000000000E+00   3.28367039968489E-35
     -3.28367039968489E-35   0.00000000000000E+00  -3.79571309823628E-16   0.00000000000000E+00   0.00000000000000E+00
      0.00000000000000E+00   0.00000000000000E+00  -2.15369716198075E-21  -1.26157413966704E-14  -1.26157435503676E-14
     -4.90623914840087E-15   1.00000000000000E+00   1.00000000000000E+00   0.00000000000000E+00   0.00000000000000E+00
      1.26157335946259E-14   8.30658385760310E-21   1.26157419012098E-14   3.26338929714200E-15   0.00000000000000E+00
      0.00000000000000E+00   0.00000000000000E+00   0.00000000000000E+00   1.64913896576577E-21   1.88284891872890E-26
      1.64915779425496E-21   2.02242116108250E-15
      2.28000000000000E-03
     -9.94300000000000E-01  -9.94300000000000E-01   0.00000000000000E+00   0.00000000000000E+00   4.26993884923555E-35
     -4.26993884923555E-35   0.00000000000000E+00  -3.71875944180765E-16   0.00000000000000E+00   0.00000000000000E+00
      0.00000000000000E+00   0.00000000000000E+00   1.02606684289386E-18  -1.26151641369161E-14  -1.26141380700732E-14
     -4.91271588941643E-15   1.00000000000000E+00   1.00000000000000E+00   0.00000000000000E+00   0.00000000000000E+00
      1.26151560184677E-14   8.30658582583425E-21   1.26151643250535E-14   3.26278273034301E-15   0.00000000000000E+00
      0.00000000000000E+00   0.00000000000000E+00   0.00000000000000E+00  -1.02625769596788E-18   2.71568429989056E-24
     -1.02625498028358E-18   2.02180910325419E-15
      3.94400000000000E-03
     -9.90140000000000E-01  -9.90140000000000E-01   0.00000000000000E+00   0.00000000000000E+00   6.07251386028761E-35
     -6.07251386028761E-35   0.00000000000000E+00  -3.61874333947454E-16   0.00000000000000E+00   0.00000000000000E+00
      0.00000000000000E+00   0.00000000000000E+00   2.90219934992305E-18  -1.26144163496650E-14  -1.26115141503151E-14
     -4.92113302981005E-15   1.00000000000000E+00   1.00000000000000E+00   0.00000000000000E+00   0.00000000000000E+00
      1.26144079815789E-14   8.30658755585547E-21   1.26144162881664E-14   3.26199407269032E-15   0.00000000000000E+00
      0.00000000000000E+00   0.00000000000000E+00   0.00000000000000E+00  -2.90214520366171E-18   7.35233412369016E-24
     -2.90213785132759E-18   2.02101329106718E-15
      6.10720000000000E-03
     -9.84732000000000E-01  -9.84732000000000E-01   0.00000000000000E+00   0.00000000000000E+00   3.30346788334997E-35
     -3.30346788334997E-35   0.00000000000000E+00  -3.48876252628405E-16   0.00000000000000E+00   0.00000000000000E+00
      0.00000000000000E+00   0.00000000000000E+00  -1.39763876787982E-21  -1.26134487404623E-14  -1.26134501381011E-14
     -4.93207086453285E-15   1.00000000000000E+00   1.00000000000000E+00   0.00000000000000E+00   0.00000000000000E+00
      1.26134408711736E-14   8.30659806843018E-21   1.26134491777716E-14   3.26096861350977E-15   0.00000000000000E+00
      0.00000000000000E+00   0.00000000000000E+00   0.00000000000000E+00   9.60450669052673E-22  -1.21217084473780E-25
      9.60329451968199E-22   2.01997850365148E-15
      8.87609600000000E-03
     -9.77809760000000E-01  -9.77809760000000E-01   0.00000000000000E+00   0.00000000000000E+00   3.29963821978997E-35
     -3.29963821978997E-35   0.00000000000000E+00  -3.32245358204059E-16   0.00000000000000E+00   0.00000000000000E+00
      0.00000000000000E+00   0.00000000000000E+00   3.12092074312371E-21  -1.26122177861590E-14  -1.26122146652382E-14
     -4.94606392428696E-15   1.00000000000000E+00   1.00000000000000E+00   0.00000000000000E+00   0.00000000000000E+00
      1.26122099372979E-14   8.30660579152197E-21   1.26122182439036E-14   3.25965568875984E-15   0.00000000000000E+00
      0.00000000000000E+00   0.00000000000000E+00   0.00000000000000E+00  -3.57868649597167E-21   2.10751421294756E-26
     -3.57866542082954E-21   2.01865359373116E-15
      1.24202828800000E-02
     -9.68949292800000E-01  -9.68949292800000E-01   0.00000000000000E+00   0.00000000000000E+00   3.29296666679259E-35
     -3.29296666679259E-35   0.00000000000000E+00  -3.10968775483469E-16   0.00000000000000E+00   0.00000000000000E+00
      0.00000000000000E+00   0.00000000000000E+00   1.33386580442101E-22  -1.26106548009295E-14  -1.26106546675429E-14
     -4.96396290024302E-15   1.00000000000000E+00   1.00000000000000E+00   0.00000000000000E+00   0.00000000000000E+00
      1.26106468286302E-14   8.30661569286513E-21   1.26106551352459E-14   3.25797459269801E-15   0.00000000000000E+00
      0.00000000000000E+00   0.00000000000000E+00   0.00000000000000E+00  -4.67650422075971E-22  -5.25809537544741E-26
     -4.67703003029725E-22   2.01695708302849E-15
      1.69568420864000E-02
     -9.57607894784000E-01  -9.57607894784000E-01   0.00000000000000E+00   0.00000000000000E+00   3.29289167931569E-35
     -3.29289167931569E-35   0.00000000000000E+00  -2.83752851642670E-16   0.00000000000000E+00   0.00000000000000E+00
      0.00000000000000E+00   0.00000000000000E+00  -1.00938377022972E-21  -1.26086753497895E-14  -1.26086763591732E-14
     -4.98685355609781E-15   1.00000000000000E+00   1.00000000000000E+00   0.00000000000000E+00   0.00000000000000E+00
      1.26086674379588E-14   8.30662839808301E-21   1.26086757445872E-14   3.25582188421520E-15   0.00000000000000E+00
      0.00000000000000E+00   0.00000000000000E+00   0.00000000000000E+00   6.14525054767973E-22   6.10242003860595E-26
      6.14586078968359E-22   2.01478452352527E-15
      2.27636378705920E-02
     -9.43090905323520E-01  -9.43090905323520E-01   0.00000000000000E+00   0.00000000000000E+00   3.26066690628419E-35
     -3.26066690628419E-35   0.00000000000000E+00  -2.48946426011972E-16   0.00000000000000E+00   0.00000000000000E+00
      0.00000000000000E+00   0.00000000000000E+00   2.59395448933374E-21  -1.26061772962951E-14  -1.26061747023406E-14
     -5.01612047312238E-15   1.00000000000000E+00   1.00000000000000E+00   0.00000000000000E+00   0.00000000000000E+00
      1.26061692468352E-14   8.30664470709558E-21   1.26061775534799E-14   3.25306493270966E-15   0.00000000000000E+00
      0.00000000000000E+00   0.00000000000000E+00   0.00000000000000E+00  -2.85109429746239E-21  -4.50108849285122E-26
     -2.85113930834731E-21   2.01200196642468E-15
      3.01963364743578E-02
     -9.24509158814106E-01  -9.24509158814106E-01   0.00000000000000E+00   0.00000000000000E+00   3.27717503547947E-35
     -3.27717503547947E-35   0.00000000000000E+00  -2.04443912088064E-16   0.00000000000000E+00   0.00000000000000E+00
      0.00000000000000E+00   0.00000000000000E+00  -4.96619738845437E-22  -1.26030401307489E-14  -1.26030406273686E-14
     -5.05352722704889E-15   1.00000000000000E+00   1.00000000000000E+00   0.00000000000000E+00   0.00000000000000E+00
      1.26030320125309E-14   8.30666566175543E-21   1.26030403191965E-14   3.24953360019497E-15   0.00000000000000E+00
      0.00000000000000E+00   0.00000000000000E+00   0.00000000000000E+00   3.08241691177054E-22  -6.95703159924611E-26
      3.08172120861061E-22   2.00843753894201E-15
      3.97101906871779E-02
     -9.00724523282055E-01  -9.00724523282055E-01   0.00000000000000E+00   0.00000000000000E+00   3.26564459838279E-35
     -3.26564459838279E-35   0.00000000000000E+00  -1.47563469330726E-16   0.00000000000000E+00   0.00000000000000E+00
      0.00000000000000E+00   0.00000000000000E+00   1.66902236224052E-21  -1.25991271785458E-14  -1.25991255095234E-14
     -5.10131659079946E-15   1.00000000000000E+00   1.00000000000000E+00   0.00000000000000E+00   0.00000000000000E+00
      1.25991193520100E-14   8.30669254739123E-21   1.25991276587025E-14   3.24500950135091E-15   0.00000000000000E+00
      0.00000000000000E+00   0.00000000000000E+00   0.00000000000000E+00  -2.14904920576855E-21  -1.29907892449862E-25
     -2.14917911366100E-21   2.00387055877929E-15
      5.18879240795878E-02
     -8.70280189801031E-01  -8.70280189801031E-01   0.00000000000000E+00   0.00000000000000E+00   3.26698774540109E-35
     -3.26698774540109E-35   0.00000000000000E+00  -7.48949274669230E-17   0.00000000000000E+00   0.00000000000000E+00
      0.00000000000000E+00   0.00000000000000E+00   1.04752152739033E-20  -1.25942935125373E-14  -1.25942830373220E-14
     -5.16233460710305E-15   1.00000000000000E+00   1.00000000000000E+00   0.00000000000000E+00   0.00000000000000E+00
      1.25942856972621E-14   8.30672715709898E-21   1.25942940039892E-14   3.23921210335500E-15   0.00000000000000E+00
      0.00000000000000E+00   0.00000000000000E+00   0.00000000000000E+00  -1.09666550322791E-20  -1.21747926988715E-26
     -1.09666672070718E-20   1.99801743121497E-15
      6.74754228218723E-02
     -8.31311442945319E-01  -8.31311442945319E-01   0.00000000000000E+00   0.00000000000000E+00   3.26439358788633E-35
     -3.26439358788633E-35   0.00000000000000E+00   1.78880858514657E-17   0.00000000000000E+00   0.00000000000000E+00
      0.00000000000000E+00   0.00000000000000E+00   7.91531787026098E-20  -1.25884036504530E-14  -1.25883244972743E-14
     -5.24018208954396E-15   1.00000000000000E+00   1.00000000000000E+00   0.00000000000000E+00   0.00000000000000E+00
      1.25883955859730E-14   8.30677169732620E-21   1.25884038927447E-14   3.23178068180262E-15   0.00000000000000E+00
      0.00000000000000E+00   0.00000000000000E+00   0.00000000000000E+00  -7.93953224789778E-20  -1.47889211540195E-25
     -7.93954703681894E-20   1.99051332188988E-15
      8.74274212119966E-02
     -7.81431446970009E-01  -7.81431446970009E-01   0.00000000000000E+00   0.00000000000000E+00   3.29566537565811E-35
     -3.29566537565811E-35   0.00000000000000E+00   1.36256569934362E-16   0.00000000000000E+00   0.00000000000000E+00
      0.00000000000000E+00   0.00000000000000E+00   6.14446779359896E-19  -1.25813624148967E-14  -1.25807479681173E-14
     -5.33939563258547E-15   1.00000000000000E+00   1.00000000000000E+00   0.00000000000000E+00   0.00000000000000E+00
      1.25813543973612E-14   8.30682882662131E-21   1.25813627041901E-14   3.22225080947070E-15   0.00000000000000E+00
      0.00000000000000E+00   0.00000000000000E+00   0.00000000000000E+00  -6.14735770446319E-19  -3.02305024850515E-25
     -6.14736072751343E-19   1.98088825318044E-15
      1.00000000000000E-01
     -7.50000000000000E-01  -7.50000000000000E-01   0.00000000000000E+00   0.00000000000000E+00   3.27510447519026E-35
     -3.27510447519026E-35   0.00000000000000E+00   2.10611102217533E-16   0.00000000000000E+00   0.00000000000000E+00
      0.00000000000000E+00   0.00000000000000E+00   7.60590171964925E-20  -1.25772111953736E-14  -1.25771351363564E-14
     -5.40165824376830E-15   1.00000000000000E+00   1.00000000000000E+00   0.00000000000000E+00   0.00000000000000E+00
      1.25772031401939E-14   8.30686583442640E-21   1.25772114470597E-14   3.21623544272632E-15   0.00000000000000E+00
      0.00000000000000E+00   0.00000000000000E+00   0.00000000000000E+00  -7.63107286679908E-20   2.53811183687824E-26
     -7.63107032868725E-20   1.97481169882445E-15
      1.25538557939359E-01
     -6.86153605151602E-01  -6.86153605151602E-01   0.00000000000000E+00   0.00000000000000E+00   3.36844393216908E-35
     -3.36844393216908E-35   0.00000000000000E+00   3.61068291718455E-16   0.00000000000000E+00   0.00000000000000E+00
      0.00000000000000E+00   0.00000000000000E+00   2.59049681619643E-18  -1.25694332880600E-14  -1.25668427912438E-14
     -5.52750185402908E-15   1.00000000000000E+00   1.00000000000000E+00   0.00000000000000E+00   0.00000000000000E+00
      1.25694252647702E-14   8.30693868078870E-21   1.25694335717089E-14   3.20399215237084E-15   0.00000000000000E+00
      0.00000000000000E+00   0.00000000000000E+00   0.00000000000000E+00  -2.59077992049080E-18  -5.44550445314973E-25
     -2.59078046504124E-18   1.96244140993979E-15
      1.58227912101739E-01
     -6.04430219745653E-01  -6.04430219745653E-01   0.00000000000000E+00   0.00000000000000E+00   3.25104777620192E-35
     -3.25104777620192E-35   0.00000000000000E+00   5.52474171028835E-16   0.00000000000000E+00   0.00000000000000E+00
      0.00000000000000E+00   0.00000000000000E+00  -1.90110110449651E-21  -1.25606722886155E-14  -1.25606741897166E-14
     -5.68730206306541E-15   1.00000000000000E+00   1.00000000000000E+00   0.00000000000000E+00   0.00000000000000E+00
      1.25606643890931E-14   8.30703733612640E-21   1.25606726961305E-14   3.18827302757367E-15   0.00000000000000E+00
      0.00000000000000E+00   0.00000000000000E+00   0.00000000000000E+00   1.49363283008369E-21  -4.67333647530037E-26
      1.49358609671894E-21   1.94655486446290E-15
      1.99416498346337E-01
     -5.01458754134158E-01  -5.01458754134158E-01   0.00000000000000E+00   0.00000000000000E+00   3.24315770470536E-35
     -3.24315770470536E-35   0.00000000000000E+00   7.91658468266654E-16   0.00000000000000E+00   0.00000000000000E+00
      0.00000000000000E+00   0.00000000000000E+00  -7.31223515170587E-22  -1.25514290111254E-14  -1.25514297423489E-14
     -5.88650356659273E-15   1.00000000000000E+00   1.00000000000000E+00   0.00000000000000E+00   0.00000000000000E+00
      1.25514210414378E-14   8.30716052562542E-21   1.25514293485983E-14   3.16839038398327E-15   0.00000000000000E+00
      0.00000000000000E+00   0.00000000000000E+00   0.00000000000000E+00   3.93627568792830E-22   1.22989328841662E-25
      3.93750558121672E-22   1.92645471434283E-15
      2.00000000000000E-01
     -5.00000000000000E-01  -5.00000000000000E-01   0.00000000000000E+00   0.00000000000000E+00   3.23995063274457E-35
     -3.23995063274457E-35   0.00000000000000E+00   7.95030411579443E-16   0.00000000000000E+00   0.00000000000000E+00
      0.00000000000000E+00   0.00000000000000E+00   5.33744434260071E-23  -1.25513124952217E-14  -1.25513124418473E-14
     -5.88930781684190E-15   1.00000000000000E+00   1.00000000000000E+00   0.00000000000000E+00   0.00000000000000E+00
      1.25513046458382E-14   8.30716228568724E-21   1.25513129530005E-14   3.16810810004004E-15   0.00000000000000E+00
      0.00000000000000E+00   0.00000000000000E+00   0.00000000000000E+00  -5.11110640903763E-22  -4.26404723487460E-26
     -5.11153281376112E-22   1.92616930522239E-15
      2.51897618668194E-01
     -3.70255953329515E-01  -3.70255953329515E-01   0.00000000000000E+00   0.00000000000000E+00   3.26278369611986E-35
     -3.26278369611986E-35   0.00000000000000E+00   1.09302683926492E-15   0.00000000000000E+00   0.00000000000000E+00
      0.00000000000000E+00   0.00000000000000E+00  -1.99345316436471E-22  -1.25426729152256E-14  -1.25426731145709E-14
     -6.13667135939416E-15   1.00000000000000E+00   1.00000000000000E+00   0.00000000000000E+00   0.00000000000000E+00
      1.25426649756873E-14   8.30732045079378E-21   1.25426732830077E-14   3.14293235062178E-15   0.00000000000000E+00
      0.00000000000000E+00   0.00000000000000E+00   0.00000000000000E+00  -1.68507672165343E-22   7.09148017859285E-26
     -1.68436757363558E-22   1.90071216950746E-15
      3.00000000000000E-01
     -2.50000000000000E-01  -2.50000000000000E-01   0.00000000000000E+00   0.00000000000000E+00   3.24490881324856E-35
     -3.24490881324856E-35   0.00000000000000E+00   1.36575877462016E-15   0.00000000000000E+00   0.00000000000000E+00
      0.00000000000000E+00   0.00000000000000E+00  -2.49232623670331E-21  -1.25380039313343E-14  -1.25380064236606E-14
     -6.36222583009465E-15   1.00000000000000E+00   1.00000000000000E+00   0.00000000000000E+00   0.00000000000000E+00
      1.25379961105539E-14   8.30746948893015E-21   1.25380044180234E-14   3.11947537957896E-15   0.00000000000000E+00
      0.00000000000000E+00   0.00000000000000E+00   0.00000000000000E+00   2.00560765025365E-21   2.95296439133334E-26
      2.00563717989757E-21   1.87699167589551E-15
      3.65390999521924E-01
     -8.65225011951893E-02  -8.65225011951893E-02   0.00000000000000E+00   0.00000000000000E+00   3.25555514759777E-35
     -3.25555514759777E-35   0.00000000000000E+00   1.73100684303517E-15   0.00000000000000E+00   0.00000000000000E+00
      0.00000000000000E+00   0.00000000000000E+00   1.98276183257981E-21  -1.25373183151693E-14  -1.25373163324075E-14
     -6.66296505583011E-15   1.00000000000000E+00   1.00000000000000E+00   0.00000000000000E+00   0.00000000000000E+00
      1.25373104836783E-14   8.30767483821130E-21   1.25373187913531E-14   3.08739716542014E-15   0.00000000000000E+00
      0.00000000000000E+00   0.00000000000000E+00   0.00000000000000E+00  -2.45890443383222E-21  -4.12498394516134E-26
     -2.45894568367167E-21   1.84456104737478E-15
      4.00000000000000E-01
      0.00000000000000E+00   0.00000000000000E+00   0.00000000000000E+00   0.00000000000000E+00   3.30848817125290E-35
     -3.30848817125290E-35   0.00000000000000E+00   1.92173884792331E-15   0.00000000000000E+00   0.00000000000000E+00
      0.00000000000000E+00   0.00000000000000E+00  -3.10357420033441E-21  -1.25392153609500E-14  -1.25392184645242E-14
     -6.81938285113925E-15   1.00000000000000E+00   1.00000000000000E+00   0.00000000000000E+00   0.00000000000000E+00
      1.25392076570769E-14   8.30778451837500E-21   1.25392159648614E-14   3.07032954814716E-15   0.00000000000000E+00
      0.00000000000000E+00   0.00000000000000E+00   0.00000000000000E+00   2.49974698846477E-21  -8.41838031461276E-26
      2.49966280466163E-21   1.82731445506876E-15
      4.41196329698812E-01
      1.02990824247031E-01   1.02990824247031E-01   0.00000000000000E+00   0.00000000000000E+00   3.27222969797483E-35
     -3.27222969797483E-35   0.00000000000000E+00   2.14647211871768E-15   0.00000000000000E+00   0.00000000000000E+00
      0.00000000000000E+00   0.00000000000000E+00  -5.28039207069644E-21  -1.25426391378795E-14  -1.25426444182715E-14
     -7.00311792478763E-15   1.00000000000000E+00   1.00000000000000E+00   0.00000000000000E+00   0.00000000000000E+00
      1.25426313026094E-14   8.30791661935664E-21   1.25426396105261E-14   3.04993132853293E-15   0.00000000000000E+00
      0.00000000000000E+00   0.00000000000000E+00   0.00000000000000E+00   4.80789078454476E-21  -1.45308326402874E-25
      4.80774547621836E-21   1.80671447753700E-15
      4.92279778525339E-01
      2.30699446313349E-01   2.30699446313349E-01   0.00000000000000E+00   0.00000000000000E+00   3.29791132995491E-35
     -3.29791132995491E-35   0.00000000000000E+00   2.42174223144307E-15   0.00000000000000E+00   0.00000000000000E+00
      0.00000000000000E+00   0.00000000000000E+00   3.52205499759862E-21  -1.25478565618452E-14  -1.25478530397902E-14
     -7.22732326240987E-15   1.00000000000000E+00   1.00000000000000E+00   0.00000000000000E+00   0.00000000000000E+00
      1.25478489596920E-14   8.30808288681487E-21   1.25478572677749E-14   3.02451247866729E-15   0.00000000000000E+00
      0.00000000000000E+00   0.00000000000000E+00   0.00000000000000E+00  -4.22799684723935E-21   1.20988639515438E-26
     -4.22798474837540E-21   1.78106855229950E-15
      5.00000000000000E-01
      2.50000000000000E-01   2.50000000000000E-01   0.00000000000000E+00   0.00000000000000E+00   3.33536397227053E-35
     -3.33536397227053E-35   0.00000000000000E+00   2.46302374234919E-15   0.00000000000000E+00   0.00000000000000E+00
      0.00000000000000E+00   0.00000000000000E+00   4.28230395581858E-19  -1.25487102605799E-14  -1.25482820301843E-14
     -7.26086580331286E-15   1.00000000000000E+00   1.00000000000000E+00   0.00000000000000E+00   0.00000000000000E+00
      1.25487024537104E-14   8.30810820363792E-21   1.25487107618186E-14   3.02065882133293E-15   0.00000000000000E+00
      0.00000000000000E+00   0.00000000000000E+00   0.00000000000000E+00  -4.28731597925336E-19  -3.63502348513639E-26
     -4.28731634275570E-19   1.77718323963078E-15
      5.62321807568363E-01
      4.05804518920908E-01   4.05804518920908E-01   0.00000000000000E+00   0.00000000000000E+00   1.29749461551015E-35
     -1.29749461551015E-35   0.00000000000000E+00   2.79329774149617E-15   0.00000000000000E+00   0.00000000000000E+00
      0.00000000000000E+00   0.00000000000000E+00  -8.06186089621014E-22  -1.25559567157429E-14  -1.25559575219290E-14
     -7.52846310553970E-15   1.00000000000000E+00   1.00000000000000E+00   0.00000000000000E+00   0.00000000000000E+00
      1.25559495915901E-14   8.30831520410243E-21   1.25559578999053E-14   2.98943323143119E-15   0.00000000000000E+00
      0.00000000000000E+00   0.00000000000000E+00   0.00000000000000E+00  -3.78069598425343E-22   9.33677044288266E-26
     -3.77976230720915E-22   1.74573213261233E-15
      6.00000000000000E-01
      5.00000000000000E-01   5.00000000000000E-01   0.00000000000000E+00   0.00000000000000E+00   3.27590327816732E-35
     -3.27590327816732E-35   0.00000000000000E+00   2.99049426466214E-15   0.00000000000000E+00   0.00000000000000E+00
      0.00000000000000E+00   0.00000000000000E+00  -4.65678186458733E-21  -1.25605430932772E-14  -1.25605477500591E-14
     -7.68759465370771E-15   1.00000000000000E+00   1.00000000000000E+00   0.00000000000000E+00   0.00000000000000E+00
      1.25605363413835E-14   8.30844064597978E-21   1.25605446498241E-14   2.97045463144666E-15   0.00000000000000E+00
      0.00000000000000E+00   0.00000000000000E+00   0.00000000000000E+00   3.10023182086076E-21   3.14069320794636E-27
      3.10023496155396E-21   1.72664575759894E-15
      6.77279041384770E-01
      6.93197603461926E-01   6.93197603461926E-01   0.00000000000000E+00   0.00000000000000E+00   3.29409756468235E-35
     -3.29409756468235E-35   0.00000000000000E+00   3.38943488962987E-15   0.00000000000000E+00   0.00000000000000E+00
      0.00000000000000E+00   0.00000000000000E+00   1.14696075108630E-20  -1.25729419141647E-14  -1.25729304445572E-14
     -8.00807305514841E-15   1.00000000000000E+00   1.00000000000000E+00   0.00000000000000E+00   0.00000000000000E+00
      1.25729381331575E-14   8.30868833612709E-21   1.25729464418459E-14   2.93129723033011E-15   0.00000000000000E+00
      0.00000000000000E+00   0.00000000000000E+00   0.00000000000000E+00  -1.59972032652254E-20  -8.54008605417152E-26
     -1.59972886660859E-20   1.68734093518844E-15
      7.00000000000000E-01
      7.50000000000000E-01   7.50000000000000E-01   0.00000000000000E+00   0.00000000000000E+00   5.12568782816858E-35
     -5.12568782816858E-35   0.00000000000000E+00   3.50537246725594E-15   0.00000000000000E+00   0.00000000000000E+00
      0.00000000000000E+00   0.00000000000000E+00   3.34880752736527E-21  -1.25780891672676E-14  -1.25780858184600E-14
     -8.10084596051769E-15   1.00000000000000E+00   1.00000000000000E+00   0.00000000000000E+00   0.00000000000000E+00
      1.25780874523251E-14   8.30877974067424E-21   1.25780957611048E-14   2.91972695157841E-15   0.00000000000000E+00
      0.00000000000000E+00   0.00000000000000E+00   0.00000000000000E+00  -9.94259885638017E-21  -4.59445453625568E-26
     -9.94264480092554E-21   1.67574654168338E-15
      7.97371592144811E-01
      9.93428980362026E-01   9.93428980362026E-01   0.00000000000000E+00   0.00000000000000E+00   3.24056804460864E-35
     -3.24056804460864E-35   0.00000000000000E+00   3.99549018602896E-15   0.00000000000000E+00   0.00000000000000E+00
      0.00000000000000E+00   0.00000000000000E+00   2.26324342340672E-20  -1.26103009071442E-14  -1.26102782747100E-14
     -8.49123196667761E-15   1.00000000000000E+00   1.00000000000000E+00   0.00000000000000E+00   0.00000000000000E+00
      1.26103290866808E-14   8.30911662946035E-21   1.26103373957974E-14   2.86986445498811E-15   0.00000000000000E+00
      0.00000000000000E+00   0.00000000000000E+00   0.00000000000000E+00  -5.91210798227840E-20  -7.64512046795736E-27
     -5.91210874679045E-20   1.62587732566053E-15
      8.00000000000000E-01
      1.00000000000000E+00   1.00000000000000E+00   0.00000000000000E+00   0.00000000000000E+00   3.34127437631603E-35
     -3.34127437631603E-35   0.00000000000000E+00   4.00857019516186E-15   0.00000000000000E+00   0.00000000000000E+00
      0.00000000000000E+00   0.00000000000000E+00   7.64439221927813E-19  -1.26114313411298E-14  -1.26106669019078E-14
     -8.50161011658112E-15   1.00000000000000E+00   1.00000000000000E+00   0.00000000000000E+00   0.00000000000000E+00
      1.26114609028155E-14   8.30912582839114E-21   1.26114692119414E-14   2.86851256107860E-15   0.00000000000000E+00
      0.00000000000000E+00   0.00000000000000E+00   0.00000000000000E+00  -8.02310036335481E-19   2.79203967902607E-27
     -8.02310033543441E-19   1.62452736034063E-15
      8.50000000000000E-01
      1.12500000000000E+00   1.12500000000000E+00   0.00000000000000E+00   0.00000000000000E+00   3.32234044627284E-35
     -3.32234044627284E-35   0.00000000000000E+00   4.25589517509595E-15   0.00000000000000E+00   0.00000000000000E+00
      0.00000000000000E+00   0.00000000000000E+00  -1.03405898081558E-19  -1.26365254666683E-14  -1.26366288725664E-14
     -8.69744814334616E-15   1.00000000000000E+00   1.00000000000000E+00   0.00000000000000E+00   0.00000000000000E+00
      1.26366196901174E-14   8.30930182371352E-21   1.26366279994193E-14   2.84274048304206E-15   0.00000000000000E+00
      0.00000000000000E+00   0.00000000000000E+00   0.00000000000000E+00   8.73228109247973E-22  -8.09860494889720E-26
      8.73147123198484E-22   1.59881248520812E-15
      9.00000000000000E-01
      1.25000000000000E+00   1.25000000000000E+00   0.00000000000000E+00   0.00000000000000E+00   3.27571455020342E-35
     -3.27571455020342E-35   0.00000000000000E+00   4.50039882609815E-15   0.00000000000000E+00   0.00000000000000E+00
      0.00000000000000E+00   0.00000000000000E+00   1.24391885901485E-19  -1.26716777568409E-14  -1.26715533649550E-14
     -8.89030617854744E-15   1.00000000000000E+00   1.00000000000000E+00   0.00000000000000E+00   0.00000000000000E+00
      1.26719637474036E-14   8.30947959963767E-21   1.26719720568832E-14   2.81686957164308E-15   0.00000000000000E+00
      0.00000000000000E+00   0.00000000000000E+00   0.00000000000000E+00  -4.18691938885916E-19   1.07002122555585E-26
     -4.18691928185703E-19   1.57303778080620E-15
      9.62000000000000E-01
      1.40500000000000E+00   1.40500000000000E+00   0.00000000000000E+00   0.00000000000000E+00   3.29859963592445E-35
     -3.29859963592445E-35   0.00000000000000E+00   4.79978858835621E-15   0.00000000000000E+00   0.00000000000000E+00
      0.00000000000000E+00   0.00000000000000E+00  -1.09537565871158E-20  -1.27442530705992E-14  -1.27442640243558E-14
     -9.12546351970565E-15   1.00000000000000E+00   1.00000000000000E+00   0.00000000000000E+00   0.00000000000000E+00
      1.27454721072645E-14   8.30970200587541E-21   1.27454804169665E-14   2.78466536893467E-15   0.00000000000000E+00
      0.00000000000000E+00   0.00000000000000E+00   0.00000000000000E+00  -1.21639254505214E-18  -6.56549297959086E-26
     -1.21639261070707E-18   1.54100956241482E-15
      1.00000000000000E+00
      1.50000000000000E+00   1.50000000000000E+00   0.00000000000000E+00   0.00000000000000E+00   3.23157950811419E-35
     -3.23157950811419E-35   0.00000000000000E+00   4.98133696984470E-15   0.00000000000000E+00   0.00000000000000E+00
      0.00000000000000E+00   0.00000000000000E+00  -1.12492638559360E-20  -1.28216405722893E-14  -1.28216518215531E-14
     -9.26755442031701E-15   1.00000000000000E+00   1.00000000000000E+00   0.00000000000000E+00   0.00000000000000E+00
      1.28249015411929E-14   8.30983967020950E-21   1.28249098510326E-14   2.76486565544851E-15   0.00000000000000E+00
      0.00000000000000E+00   0.00000000000000E+00   0.00000000000000E+00  -3.25802951349843E-18   3.40116999767223E-26
     -3.25802947948673E-18   1.52135179502379E-15
}
