DF-ISE text

Info {
  version   = 1.0
  type      = xyplot
  datasets  = [
    "time"
    "gate OuterVoltage" "gate InnerVoltage" "gate QuasiFermiPotential" "gate DisplacementCurrent" "gate eCurrent"
    "gate hCurrent" "gate TotalCurrent" "gate Charge" "substrate OuterVoltage" "substrate InnerVoltage"
    "substrate QuasiFermiPotential" "substrate DisplacementCurrent" "substrate eCurrent" "substrate hCurrent" "substrate TotalCurrent"
    "substrate Charge" "drain OuterVoltage" "drain InnerVoltage" "drain QuasiFermiPotential" "drain DisplacementCurrent"
    "drain eCurrent" "drain hCurrent" "drain TotalCurrent" "drain Charge" "source OuterVoltage"
    "source InnerVoltage" "source QuasiFermiPotential" "source DisplacementCurrent" "source eCurrent" "source hCurrent"
    "source TotalCurrent" "source Charge" ]
  functions = [
    Time
    OuterVoltage InnerVoltage QuasiFermiPotential DisplacementCurrent eCurrent
    hCurrent TotalCurrent Charge OuterVoltage InnerVoltage
    QuasiFermiPotential DisplacementCurrent eCurrent hCurrent TotalCurrent
    Charge OuterVoltage InnerVoltage QuasiFermiPotential DisplacementCurrent
    eCurrent hCurrent TotalCurrent Charge OuterVoltage
    InnerVoltage QuasiFermiPotential DisplacementCurrent eCurrent hCurrent
    TotalCurrent Charge ]
}

Data {
      0.00000000000000E+00
      1.00000000000000E+00   1.00000000000000E+00   0.00000000000000E+00   0.00000000000000E+00   1.22771888114341E-36
     -1.22771888114341E-36   0.00000000000000E+00   7.65084509944851E-16   0.00000000000000E+00   0.00000000000000E+00
      0.00000000000000E+00   0.00000000000000E+00   3.81082154444775E-13   4.47244014839103E-21   3.81082158917215E-13
      6.51549199981076E-15  -1.00000000000000E+00  -1.00000000000000E+00   0.00000000000000E+00   0.00000000000000E+00
     -1.09061371928912E-21  -3.81082361313816E-13  -3.81082362404429E-13  -4.47939903979846E-15   0.00000000000000E+00
      0.00000000000000E+00   0.00000000000000E+00   0.00000000000000E+00   8.64173619431281E-28   2.03487213737356E-19
      2.03487214601530E-19  -2.80117746995715E-15
      1.00000000000000E-03
      9.97500000000000E-01   9.97500000000000E-01   0.00000000000000E+00   0.00000000000000E+00   1.23790591945196E-36
     -1.23790591945196E-36   0.00000000000000E+00   7.63466428896746E-16   0.00000000000000E+00   0.00000000000000E+00
      0.00000000000000E+00   0.00000000000000E+00   3.81067306914637E-13   9.54506423099757E-21   3.81067316459701E-13
      6.51579529366615E-15  -1.00000000000000E+00  -1.00000000000000E+00   0.00000000000000E+00   0.00000000000000E+00
     -1.09061379973643E-21  -3.81067516267388E-13  -3.81067517358002E-13  -4.47874627300018E-15   0.00000000000000E+00
      0.00000000000000E+00   0.00000000000000E+00   0.00000000000000E+00  -1.10619600395689E-26   2.00898311085301E-19
      2.00898300023341E-19  -2.80051544956271E-15
      2.28000000000000E-03
      9.94300000000000E-01   9.94300000000000E-01   0.00000000000000E+00   0.00000000000000E+00   1.82444809870445E-36
     -1.82444809870445E-36   0.00000000000000E+00   7.61395510598122E-16   0.00000000000000E+00   0.00000000000000E+00
      0.00000000000000E+00   0.00000000000000E+00   3.81048332770881E-13  -5.01002675191287E-18   3.81043322744129E-13
      6.51618302293782E-15  -1.00000000000000E+00  -1.00000000000000E+00   0.00000000000000E+00   0.00000000000000E+00
     -1.09050586426580E-21  -3.81048544657765E-13  -3.81048545748270E-13  -4.47791060837898E-15   0.00000000000000E+00
      0.00000000000000E+00   0.00000000000000E+00   0.00000000000000E+00  -1.99007830783613E-23   5.22302404151120E-18
      5.22300414072812E-18  -2.79966792515693E-15
      3.94400000000000E-03
      9.90140000000000E-01   9.90140000000000E-01   0.00000000000000E+00   0.00000000000000E+00   2.88240998434943E-36
     -2.88240998434943E-36   0.00000000000000E+00   7.58703693346144E-16   0.00000000000000E+00   0.00000000000000E+00
      0.00000000000000E+00   0.00000000000000E+00   3.81023714791512E-13  -1.39943045484516E-17   3.81009720486963E-13
      6.51668625692541E-15  -1.00000000000000E+00  -1.00000000000000E+00   0.00000000000000E+00   0.00000000000000E+00
     -1.09030404070277E-21  -3.81023932027488E-13  -3.81023933117792E-13  -4.47682403826217E-15   0.00000000000000E+00
      0.00000000000000E+00   0.00000000000000E+00   0.00000000000000E+00  -5.57335016212178E-23   1.42126865622587E-17
      1.42126308287571E-17  -2.79856591200938E-15
      6.10720000000000E-03
      9.84732000000000E-01   9.84732000000000E-01   0.00000000000000E+00   0.00000000000000E+00   1.26924153172963E-36
     -1.26924153172963E-36   0.00000000000000E+00   7.55204963161869E-16   0.00000000000000E+00   0.00000000000000E+00
      0.00000000000000E+00   0.00000000000000E+00   3.80991786293091E-13   6.92279595761658E-21   3.80991793215887E-13
      6.51733909224713E-15  -1.00000000000000E+00  -1.00000000000000E+00   0.00000000000000E+00   0.00000000000000E+00
     -1.09061386947117E-21  -3.80992012003945E-13  -3.80992013094559E-13  -4.47541115000087E-15   0.00000000000000E+00
      0.00000000000000E+00   0.00000000000000E+00   0.00000000000000E+00  -1.05797588862882E-26   2.19878682291107E-19
      2.19878671711349E-19  -2.79713290540812E-15
      8.87609600000000E-03
      9.77809760000000E-01   9.77809760000000E-01   0.00000000000000E+00   0.00000000000000E+00   1.24613325041125E-36
     -1.24613325041125E-36   0.00000000000000E+00   7.50727622719590E-16   0.00000000000000E+00   0.00000000000000E+00
      0.00000000000000E+00   0.00000000000000E+00   3.80951026939356E-13   1.04800156847743E-20   3.80951037419371E-13
      6.51817247817964E-15  -1.00000000000000E+00  -1.00000000000000E+00   0.00000000000000E+00   0.00000000000000E+00
     -1.09061395146357E-21  -3.80951262739027E-13  -3.80951263829641E-13  -4.47360208305458E-15   0.00000000000000E+00
      0.00000000000000E+00   0.00000000000000E+00   0.00000000000000E+00  -1.50839451763939E-27   2.26410270358886E-19
      2.26410268850492E-19  -2.79529801784464E-15
      1.24202828800000E-02
      9.68949292800000E-01   9.68949292800000E-01   0.00000000000000E+00   0.00000000000000E+00   1.22105937051103E-36
     -1.22105937051103E-36   0.00000000000000E+00   7.44998303315049E-16   0.00000000000000E+00   0.00000000000000E+00
      0.00000000000000E+00   0.00000000000000E+00   3.80899002633521E-13   7.76403192717625E-21   3.80899010397553E-13
      6.51923556732067E-15  -1.00000000000000E+00  -1.00000000000000E+00   0.00000000000000E+00   0.00000000000000E+00
     -1.09061405498412E-21  -3.80899251373921E-13  -3.80899252464536E-13  -4.47128554893253E-15   0.00000000000000E+00
      0.00000000000000E+00   0.00000000000000E+00   0.00000000000000E+00  -5.25965491828563E-27   2.42066987366377E-19
      2.42066982106722E-19  -2.79294832170318E-15
      1.69568420864000E-02
      9.57607894784000E-01   9.57607894784000E-01   0.00000000000000E+00   0.00000000000000E+00   1.23825558001318E-36
     -1.23825558001318E-36   0.00000000000000E+00   7.37667483692207E-16   0.00000000000000E+00   0.00000000000000E+00
      0.00000000000000E+00   0.00000000000000E+00   3.80832588093288E-13   5.77134501102880E-21   3.80832593864633E-13
      6.52059041300028E-15  -1.00000000000000E+00  -1.00000000000000E+00   0.00000000000000E+00   0.00000000000000E+00
     -1.09061419836781E-21  -3.80832855580812E-13  -3.80832856671427E-13  -4.46831887539030E-15   0.00000000000000E+00
      0.00000000000000E+00   0.00000000000000E+00   0.00000000000000E+00   2.11055943160102E-26   2.62806772804562E-19
      2.62806793910157E-19  -2.78993902130220E-15
      2.27636378705920E-02
      9.43090905323520E-01   9.43090905323520E-01   0.00000000000000E+00   0.00000000000000E+00   1.23371114829104E-36
     -1.23371114829104E-36   0.00000000000000E+00   7.28288396530148E-16   0.00000000000000E+00   0.00000000000000E+00
      0.00000000000000E+00   0.00000000000000E+00   3.80747729598146E-13   1.04945931895651E-20   3.80747740092739E-13
      6.52231506584428E-15  -1.00000000000000E+00  -1.00000000000000E+00   0.00000000000000E+00   0.00000000000000E+00
     -1.09061436307364E-21  -3.80748024807331E-13  -3.80748025897946E-13  -4.46451908292339E-15   0.00000000000000E+00
      0.00000000000000E+00   0.00000000000000E+00   0.00000000000000E+00  -4.19141293574039E-26   2.85805248440331E-19
      2.85805206526201E-19  -2.78608437945104E-15
      3.01963364743578E-02
      9.24509158814106E-01   9.24509158814106E-01   0.00000000000000E+00   0.00000000000000E+00   1.23876743063007E-36
     -1.23876743063007E-36   0.00000000000000E+00   7.16290154291594E-16   0.00000000000000E+00   0.00000000000000E+00
      0.00000000000000E+00   0.00000000000000E+00   3.80639074834554E-13   5.74188132742253E-21   3.80639080576436E-13
      6.52450724431134E-15  -1.00000000000000E+00  -1.00000000000000E+00   0.00000000000000E+00   0.00000000000000E+00
     -1.09061449852590E-21  -3.80639409745838E-13  -3.80639410836452E-13  -4.45965138252845E-15   0.00000000000000E+00
      0.00000000000000E+00   0.00000000000000E+00   0.00000000000000E+00   1.04441236180356E-26   3.30260007058368E-19
      3.30260017502491E-19  -2.78114601607448E-15
      3.97101906871779E-02
      9.00724523282055E-01   9.00724523282055E-01   0.00000000000000E+00   0.00000000000000E+00   1.26387432984878E-36
     -1.26387432984878E-36   0.00000000000000E+00   7.00943535376611E-16   0.00000000000000E+00   0.00000000000000E+00
      0.00000000000000E+00   0.00000000000000E+00   3.80499356438300E-13   3.06587719253759E-21   3.80499359504177E-13
      6.52728858950877E-15  -1.00000000000000E+00  -1.00000000000000E+00   0.00000000000000E+00   0.00000000000000E+00
     -1.09061475212550E-21  -3.80499753638423E-13  -3.80499754729038E-13  -4.45341432856009E-15   0.00000000000000E+00
      0.00000000000000E+00   0.00000000000000E+00   0.00000000000000E+00   1.19212996271171E-27   3.95224859446791E-19
      3.95224860638921E-19  -2.77481779632528E-15
      5.18879240795878E-02
      8.70280189801031E-01   8.70280189801031E-01   0.00000000000000E+00   0.00000000000000E+00   1.24976840007609E-36
     -1.24976840007609E-36   0.00000000000000E+00   6.81317453366638E-16   0.00000000000000E+00   0.00000000000000E+00
      0.00000000000000E+00   0.00000000000000E+00   3.80318323636422E-13  -5.02025462489122E-20   3.80318273433875E-13
      6.53080945766900E-15  -1.00000000000000E+00  -1.00000000000000E+00   0.00000000000000E+00   0.00000000000000E+00
     -1.09061483092473E-21  -3.80318824451967E-13  -3.80318825542581E-13  -4.44542062510194E-15   0.00000000000000E+00
      0.00000000000000E+00   0.00000000000000E+00   0.00000000000000E+00  -1.88056591549307E-26   5.52108724119739E-19
      5.52108705314080E-19  -2.76670628593369E-15
      6.74754228218723E-02
      8.31311442945319E-01   8.31311442945319E-01   0.00000000000000E+00   0.00000000000000E+00   1.23247643500242E-36
     -1.23247643500242E-36   0.00000000000000E+00   6.56223591351168E-16   0.00000000000000E+00   0.00000000000000E+00
      0.00000000000000E+00   0.00000000000000E+00   3.80080907619619E-13  -3.65488693505481E-19   3.80080542130925E-13
      6.53525412669034E-15  -1.00000000000000E+00  -1.00000000000000E+00   0.00000000000000E+00   0.00000000000000E+00
     -1.09061333198835E-21  -3.80081598084651E-13  -3.80081599175264E-13  -4.43517227694656E-15   0.00000000000000E+00
      0.00000000000000E+00   0.00000000000000E+00   0.00000000000000E+00  -3.74110956730433E-25   1.05704471318778E-18
      1.05704433907682E-18  -2.75630544109495E-15
      8.74274212119966E-02
      7.81431446970009E-01   7.81431446970009E-01   0.00000000000000E+00   0.00000000000000E+00   1.23467492934671E-36
     -1.23467492934671E-36   0.00000000000000E+00   6.24145969794636E-16   0.00000000000000E+00   0.00000000000000E+00
      0.00000000000000E+00   0.00000000000000E+00   3.79764331988584E-13  -2.34266028769019E-18   3.79761989328296E-13
      6.54084621549718E-15  -1.00000000000000E+00  -1.00000000000000E+00   0.00000000000000E+00   0.00000000000000E+00
     -1.09059555900334E-21  -3.79765399138278E-13  -3.79765400228874E-13  -4.42202837973507E-15   0.00000000000000E+00
      0.00000000000000E+00   0.00000000000000E+00   0.00000000000000E+00  -1.93801200654615E-24   3.41090251565026E-18
      3.41090057763826E-18  -2.74296380555673E-15
      1.00000000000000E-01
      7.50000000000000E-01   7.50000000000000E-01   0.00000000000000E+00   0.00000000000000E+00   1.22704234231202E-36
     -1.22704234231202E-36   0.00000000000000E+00   6.03955645997186E-16   0.00000000000000E+00   0.00000000000000E+00
      0.00000000000000E+00   0.00000000000000E+00   3.79556318035586E-13  -2.27685699266607E-19   3.79556090349887E-13
      6.54431656948001E-15  -1.00000000000000E+00  -1.00000000000000E+00   0.00000000000000E+00   0.00000000000000E+00
     -1.09061288422334E-21  -3.79557741331675E-13  -3.79557742422287E-13  -4.41373135926566E-15   0.00000000000000E+00
      0.00000000000000E+00   0.00000000000000E+00   0.00000000000000E+00  -2.14297062629591E-25   1.65207261438121E-18
      1.65207240008415E-18  -2.73454085621152E-15
      1.25538557939359E-01
      6.86153605151602E-01   6.86153605151602E-01   0.00000000000000E+00   0.00000000000000E+00   1.26072440177770E-36
     -1.26072440177770E-36   0.00000000000000E+00   5.62994486710341E-16   0.00000000000000E+00   0.00000000000000E+00
      0.00000000000000E+00   0.00000000000000E+00   3.79113219567003E-13  -6.60737117258242E-18   3.79106612195831E-13
      6.55124551416495E-15  -1.00000000000000E+00  -1.00000000000000E+00   0.00000000000000E+00   0.00000000000000E+00
     -1.09049583492701E-21  -3.79115843978868E-13  -3.79115845069364E-13  -4.39684453496671E-15   0.00000000000000E+00
      0.00000000000000E+00   0.00000000000000E+00   0.00000000000000E+00  -4.77458068021947E-24   9.23287830728927E-18
      9.23287353270859E-18  -2.71739546590857E-15
      1.58227912101739E-01
      6.04430219745653E-01   6.04430219745653E-01   0.00000000000000E+00   0.00000000000000E+00   1.24828790973617E-36
     -1.24828790973617E-36   0.00000000000000E+00   5.10656361932836E-16   0.00000000000000E+00   0.00000000000000E+00
      0.00000000000000E+00   0.00000000000000E+00   3.78512835241630E-13   6.32369140324168E-21   3.78512841565322E-13
      6.55989427091899E-15  -1.00000000000000E+00  -1.00000000000000E+00   0.00000000000000E+00   0.00000000000000E+00
     -1.09061817108483E-21  -3.78518837303342E-13  -3.78518838393960E-13  -4.37516761017236E-15   0.00000000000000E+00
      0.00000000000000E+00   0.00000000000000E+00   0.00000000000000E+00   1.20456961835069E-26   5.99682862587816E-18
      5.99682863792386E-18  -2.69538302267945E-15
      1.99416498346337E-01
      5.01458754134158E-01   5.01458754134158E-01   0.00000000000000E+00   0.00000000000000E+00   1.24668461806607E-36
     -1.24668461806607E-36   0.00000000000000E+00   4.44842215348418E-16   0.00000000000000E+00   0.00000000000000E+00
      0.00000000000000E+00   0.00000000000000E+00   3.77738181177915E-13   7.81287590710311E-21   3.77738188990791E-13
      6.57046921120120E-15  -1.00000000000000E+00  -1.00000000000000E+00   0.00000000000000E+00   0.00000000000000E+00
     -1.09061903911237E-21  -3.77756096240184E-13  -3.77756097330803E-13  -4.34776219134800E-15   0.00000000000000E+00
      0.00000000000000E+00   0.00000000000000E+00   0.00000000000000E+00   8.72932051330210E-27   1.79083400033397E-17
      1.79083400120690E-17  -2.66754923520162E-15
      2.00000000000000E-01
      5.00000000000000E-01   5.00000000000000E-01   0.00000000000000E+00   0.00000000000000E+00   1.27424357437712E-36
     -1.27424357437712E-36   0.00000000000000E+00   4.43910832231554E-16   0.00000000000000E+00   0.00000000000000E+00
      0.00000000000000E+00   0.00000000000000E+00   3.77727342393517E-13   8.45132081465559E-21   3.77727350844838E-13
      6.57061659303399E-15  -1.00000000000000E+00  -1.00000000000000E+00   0.00000000000000E+00   0.00000000000000E+00
     -1.09061933401719E-21  -3.77745545188242E-13  -3.77745546278861E-13  -4.34737324332889E-15   0.00000000000000E+00
      0.00000000000000E+00   0.00000000000000E+00   0.00000000000000E+00   2.60011377064143E-27   1.81954340203904E-17
      1.81954340229905E-17  -2.66715418193664E-15
      2.51897618668194E-01
      3.70255953329515E-01   3.70255953329515E-01   0.00000000000000E+00   0.00000000000000E+00   1.26456503155691E-36
     -1.26456503155691E-36   0.00000000000000E+00   3.61173001411907E-16   0.00000000000000E+00   0.00000000000000E+00
      0.00000000000000E+00   0.00000000000000E+00   3.76810215410725E-13   4.80606469394604E-21   3.76810220216790E-13
      6.58347106268982E-15  -1.00000000000000E+00  -1.00000000000000E+00   0.00000000000000E+00   0.00000000000000E+00
     -1.09062071501224E-21  -3.76886935435538E-13  -3.76886936526159E-13  -4.31270470999300E-15   0.00000000000000E+00
      0.00000000000000E+00   0.00000000000000E+00   0.00000000000000E+00  -1.40609663993492E-26   7.67163093828924E-17
      7.67163093688314E-17  -2.63193935410873E-15
      3.00000000000000E-01
      2.50000000000000E-01   2.50000000000000E-01   0.00000000000000E+00   0.00000000000000E+00   1.26302633085807E-36
     -1.26302633085807E-36   0.00000000000000E+00   2.84652602034879E-16   0.00000000000000E+00   0.00000000000000E+00
      0.00000000000000E+00   0.00000000000000E+00   3.76060909708575E-13   8.94857237440011E-21   3.76060918657147E-13
      6.59496263175756E-15  -1.00000000000000E+00  -1.00000000000000E+00   0.00000000000000E+00   0.00000000000000E+00
     -1.09062204419551E-21  -3.76365622167272E-13  -3.76365623257894E-13  -4.28044591811162E-15   0.00000000000000E+00
      0.00000000000000E+00   0.00000000000000E+00   0.00000000000000E+00   1.85840371539286E-26   3.04704600727359E-16
      3.04704600745943E-16  -2.59916931568081E-15
      3.64353047148560E-01
      8.91173821285989E-02   8.91173821285989E-02   0.00000000000000E+00   0.00000000000000E+00   1.24834545574977E-36
     -1.24834545574977E-36   0.00000000000000E+00   1.82513116595823E-16   0.00000000000000E+00   0.00000000000000E+00
      0.00000000000000E+00   0.00000000000000E+00   3.75167300193229E-13   1.31644852655216E-20   3.75167313357714E-13
      6.60974773614921E-15  -1.00000000000000E+00  -1.00000000000000E+00   0.00000000000000E+00   0.00000000000000E+00
     -1.09062386646622E-21  -3.77204155264538E-13  -3.77204156355161E-13  -4.23711394027721E-15   0.00000000000000E+00
      0.00000000000000E+00   0.00000000000000E+00   0.00000000000000E+00  -1.65225177079542E-26   2.03684299746259E-15
      2.03684299744607E-15  -2.55514691246782E-15
      4.00000000000000E-01
      0.00000000000000E+00   0.00000000000000E+00   0.00000000000000E+00   0.00000000000000E+00   1.22102689230732E-36
     -1.22102689230732E-36   0.00000000000000E+00   1.26044206866033E-16   0.00000000000000E+00   0.00000000000000E+00
      0.00000000000000E+00   0.00000000000000E+00   3.74695669362543E-13   6.62709367618477E-21   3.74695675989637E-13
      6.61766390867897E-15  -1.00000000000000E+00  -1.00000000000000E+00   0.00000000000000E+00   0.00000000000000E+00
     -1.09062477641701E-21  -3.80663882306688E-13  -3.80663883397313E-13  -4.21303031528668E-15   0.00000000000000E+00
      0.00000000000000E+00   0.00000000000000E+00   0.00000000000000E+00   2.04003792586690E-26   5.96820740765673E-15
      5.96820740767713E-15  -2.53067780025831E-15
      4.79797778464215E-01
     -1.99494446160537E-01  -1.99494446160537E-01   0.00000000000000E+00   0.00000000000000E+00   1.25862214109247E-36
     -1.25862214109247E-36   0.00000000000000E+00  -9.84657920710869E-20   0.00000000000000E+00   0.00000000000000E+00
      0.00000000000000E+00   0.00000000000000E+00   3.73656203554399E-13   9.42997877222266E-21   3.73656212984377E-13
      6.63472997362866E-15  -1.00000000000000E+00  -1.00000000000000E+00   0.00000000000000E+00   0.00000000000000E+00
     -1.09062705798936E-21  -4.43116428667314E-13  -4.43116429757942E-13  -4.15892613754585E-15   0.00000000000000E+00
      0.00000000000000E+00   0.00000000000000E+00   0.00000000000000E+00   8.16047893421252E-27   6.94602167735549E-14
      6.94602167735631E-14  -2.47570537029076E-15
      5.00000000000000E-01
     -2.50000000000000E-01  -2.50000000000000E-01   0.00000000000000E+00   0.00000000000000E+00   1.22974290708565E-36
     -1.22974290708565E-36   0.00000000000000E+00  -3.19788029164660E-17   0.00000000000000E+00   0.00000000000000E+00
      0.00000000000000E+00   0.00000000000000E+00   3.73400081383661E-13  -1.10055124183725E-20   3.73400070378149E-13
      6.63891828543644E-15  -1.00000000000000E+00  -1.00000000000000E+00   0.00000000000000E+00   0.00000000000000E+00
     -1.09062563970631E-21  -5.03814053972623E-13  -5.03814055063249E-13  -4.14518999333331E-15   0.00000000000000E+00
      0.00000000000000E+00   0.00000000000000E+00   0.00000000000000E+00   2.75882552018875E-26   1.30413984685071E-13
      1.30413984685099E-13  -2.46174948918666E-15
      5.98949245295626E-01
     -4.97373113239066E-01  -4.97373113239066E-01   0.00000000000000E+00   0.00000000000000E+00   5.34459568044182E-37
     -5.34459568044182E-37   0.00000000000000E+00  -1.87849448231192E-16   0.00000000000000E+00   0.00000000000000E+00
      0.00000000000000E+00   0.00000000000000E+00   3.72247773979564E-13   1.00964171006608E-20   3.72247784075981E-13
      6.65879552788600E-15  -1.00000000000000E+00  -1.00000000000000E+00   0.00000000000000E+00   0.00000000000000E+00
      9.82190395474295E-20  -3.31781625058230E-12  -3.31781615236326E-12  -4.07771892573145E-15   0.00000000000000E+00
      0.00000000000000E+00   0.00000000000000E+00   0.00000000000000E+00   3.45672562701436E-26   2.94556836828725E-12
      2.94556836828728E-12  -2.39322715392335E-15
      6.00000000000000E-01
     -5.00000000000000E-01  -5.00000000000000E-01   0.00000000000000E+00   0.00000000000000E+00   1.23465084176728E-36
     -1.23465084176728E-36   0.00000000000000E+00  -1.89502452030967E-16   0.00000000000000E+00   0.00000000000000E+00
      0.00000000000000E+00   0.00000000000000E+00   3.72236836856288E-13  -2.02229381705464E-20   3.72236816633349E-13
      6.65900178712678E-15  -1.00000000000000E+00  -1.00000000000000E+00   0.00000000000000E+00   0.00000000000000E+00
     -9.63605495970028E-22  -3.41749077911482E-12  -3.41749078007843E-12  -4.07700092025708E-15   0.00000000000000E+00
      0.00000000000000E+00   0.00000000000000E+00   0.00000000000000E+00   4.06226648406802E-27   3.04525396344508E-12
      3.04525396344508E-12  -2.39249841483872E-15
      7.00000000000000E-01
     -7.50000000000000E-01  -7.50000000000000E-01   0.00000000000000E+00   0.00000000000000E+00   1.98765448035572E-36
     -1.98765448035572E-36   0.00000000000000E+00  -3.46643847419582E-16   0.00000000000000E+00   0.00000000000000E+00
      0.00000000000000E+00   0.00000000000000E+00   3.71381899889387E-13   4.54223629576302E-20   3.71381945311750E-13
      6.67830960936749E-15  -1.00000000000000E+00  -1.00000000000000E+00   0.00000000000000E+00   0.00000000000000E+00
     -1.09063323626064E-21  -7.28110145273348E-11  -7.28110145284254E-11  -4.00855000446964E-15   0.00000000000000E+00
      0.00000000000000E+00   0.00000000000000E+00   0.00000000000000E+00  -2.37883360206859E-26   7.24396325831139E-11
      7.24396325831139E-11  -2.32311575747826E-15
      8.00000000000000E-01
     -1.00000000000000E+00  -1.00000000000000E+00   0.00000000000000E+00   0.00000000000000E+00   1.25789104035905E-36
     -1.25789104035905E-36   0.00000000000000E+00  -5.03494651403134E-16   0.00000000000000E+00   0.00000000000000E+00
      0.00000000000000E+00   0.00000000000000E+00   3.70916654440104E-13   2.06271504977388E-20   3.70916675067255E-13
      6.69727481307328E-15  -1.00000000000000E+00  -1.00000000000000E+00   0.00000000000000E+00   0.00000000000000E+00
     -1.08926629981582E-21  -1.68380808019003E-09  -1.68380808019112E-09  -3.93990586228703E-15   0.00000000000000E+00
      0.00000000000000E+00   0.00000000000000E+00   0.00000000000000E+00   3.76487987180675E-26   1.68343716351605E-09
      1.68343716351605E-09  -2.25387429938312E-15
      9.00000000000000E-01
     -1.25000000000000E+00  -1.25000000000000E+00   0.00000000000000E+00   0.00000000000000E+00   1.24189756053090E-36
     -1.24189756053090E-36   0.00000000000000E+00  -6.60152299033575E-16   0.00000000000000E+00   0.00000000000000E+00
      0.00000000000000E+00   0.00000000000000E+00   3.70634842914469E-13  -7.25385778551216E-19   3.70634117528690E-13
      6.71649899031365E-15  -1.00000000000000E+00  -1.00000000000000E+00   0.00000000000000E+00   0.00000000000000E+00
     -1.09053654837512E-21  -3.64233749541116E-08  -3.64233749541127E-08  -3.87111418862465E-15   0.00000000000000E+00
      0.00000000000000E+00   0.00000000000000E+00   0.00000000000000E+00   1.03833186899292E-26   3.64230043199957E-08
      3.64230043199957E-08  -2.18523250265542E-15
      1.00000000000000E+00
     -1.50000000000000E+00  -1.50000000000000E+00   0.00000000000000E+00   0.00000000000000E+00   1.26164692210014E-36
     -1.26164692210014E-36   0.00000000000000E+00  -8.17001337518351E-16   0.00000000000000E+00   0.00000000000000E+00
      0.00000000000000E+00   0.00000000000000E+00   3.70530268531655E-13  -1.88043560056728E-17   3.70511464175649E-13
      6.73743412067930E-15  -1.00000000000000E+00  -1.00000000000000E+00   0.00000000000000E+00   0.00000000000000E+00
     -1.09073939632808E-21  -6.37084999325079E-07  -6.37084999325080E-07  -3.80217702823423E-15   0.00000000000000E+00
      0.00000000000000E+00   0.00000000000000E+00   0.00000000000000E+00   7.31849797808459E-26   6.37084628813619E-07
      6.37084628813619E-07  -2.11825575492673E-15
}
