DF-ISE text

Info {
  version   = 1.0
  type      = xyplot
  datasets  = [
    "time"
    "gate OuterVoltage" "gate InnerVoltage" "gate QuasiFermiPotential" "gate DisplacementCurrent" "gate eCurrent"
    "gate hCurrent" "gate TotalCurrent" "gate Charge" "substrate OuterVoltage" "substrate InnerVoltage"
    "substrate QuasiFermiPotential" "substrate DisplacementCurrent" "substrate eCurrent" "substrate hCurrent" "substrate TotalCurrent"
    "substrate Charge" "drain OuterVoltage" "drain InnerVoltage" "drain QuasiFermiPotential" "drain DisplacementCurrent"
    "drain eCurrent" "drain hCurrent" "drain TotalCurrent" "drain Charge" "source OuterVoltage"
    "source InnerVoltage" "source QuasiFermiPotential" "source DisplacementCurrent" "source eCurrent" "source hCurrent"
    "source TotalCurrent" "source Charge" ]
  functions = [
    Time
    OuterVoltage InnerVoltage QuasiFermiPotential DisplacementCurrent eCurrent
    hCurrent TotalCurrent Charge OuterVoltage InnerVoltage
    QuasiFermiPotential DisplacementCurrent eCurrent hCurrent TotalCurrent
    Charge OuterVoltage InnerVoltage QuasiFermiPotential DisplacementCurrent
    eCurrent hCurrent TotalCurrent Charge OuterVoltage
    InnerVoltage QuasiFermiPotential DisplacementCurrent eCurrent hCurrent
    TotalCurrent Charge ]
}

Data {
      0.00000000000000E+00
     -1.00000000000000E+00  -1.00000000000000E+00   0.00000000000000E+00   0.00000000000000E+00   1.56507176807144E-36
     -1.56507176807144E-36   0.00000000000000E+00  -1.06860231962769E-15   0.00000000000000E+00   0.00000000000000E+00
      0.00000000000000E+00   0.00000000000000E+00  -1.73959036175483E-19  -2.03924385033383E-14  -2.03926124623745E-14
     -1.06600884627861E-14   1.00000000000000E+00   1.00000000000000E+00   0.00000000000000E+00   0.00000000000000E+00
      2.26310724702210E-08   7.31824544502168E-21   2.26310724702283E-08   7.26308552194303E-15   0.00000000000000E+00
      0.00000000000000E+00   0.00000000000000E+00   0.00000000000000E+00  -2.26310520776158E-08   2.35925747649678E-26
     -2.26310520776158E-08   4.46560526047075E-15
      1.00000000000000E-03
     -9.97500000000000E-01  -9.97500000000000E-01   0.00000000000000E+00   0.00000000000000E+00   1.56071457455114E-36
     -1.56071457455114E-36   0.00000000000000E+00  -1.06690476005414E-15   0.00000000000000E+00   0.00000000000000E+00
      0.00000000000000E+00   0.00000000000000E+00  -1.77283619354049E-21  -2.03922010661908E-14  -2.03922028390270E-14
     -1.06601241279472E-14   1.00000000000000E+00   1.00000000000000E+00   0.00000000000000E+00   0.00000000000000E+00
      2.30789420597073E-08   7.31824558366408E-21   2.30789420597146E-08   7.26225881511404E-15   0.00000000000000E+00
      0.00000000000000E+00   0.00000000000000E+00   0.00000000000000E+00  -2.30789216675118E-08   9.83711656007633E-27
     -2.30789216675118E-08   4.46477007288730E-15
      2.28000000000000E-03
     -9.94300000000000E-01  -9.94300000000000E-01   0.00000000000000E+00   0.00000000000000E+00   3.90846210596815E-36
     -3.90846210596815E-36   0.00000000000000E+00  -1.06473190753236E-15   0.00000000000000E+00   0.00000000000000E+00
      0.00000000000000E+00   0.00000000000000E+00   1.65712684765246E-14  -2.03918998568688E-14  -3.82063138034415E-15
     -1.06601698466734E-14   1.00000000000000E+00   1.00000000000000E+00   0.00000000000000E+00   0.00000000000000E+00
      2.36651926337606E-08   7.31824574863411E-21   2.36651926337679E-08   7.26120063513589E-15   0.00000000000000E+00
      0.00000000000000E+00   0.00000000000000E+00   0.00000000000000E+00  -2.36651888131365E-08   9.16406208815852E-26
     -2.36651888131365E-08   4.46370111906989E-15
      3.94400000000000E-03
     -9.90140000000000E-01  -9.90140000000000E-01   0.00000000000000E+00   0.00000000000000E+00   8.16532690328305E-36
     -8.16532690328305E-36   0.00000000000000E+00  -1.06190723924166E-15   0.00000000000000E+00   0.00000000000000E+00
      0.00000000000000E+00   0.00000000000000E+00   4.75845988285051E-14  -2.03915127598355E-14   2.71930860686697E-14
     -1.06602293949022E-14   1.00000000000000E+00   1.00000000000000E+00   0.00000000000000E+00   0.00000000000000E+00
      2.44496706897626E-08   7.31824595899745E-21   2.44496706897700E-08   7.25982500921174E-15   0.00000000000000E+00
      0.00000000000000E+00   0.00000000000000E+00   0.00000000000000E+00  -2.44496978828560E-08   2.31291044647774E-25
     -2.44496978828560E-08   4.46231162493217E-15
      6.10720000000000E-03
     -9.84732000000000E-01  -9.84732000000000E-01   0.00000000000000E+00   0.00000000000000E+00   2.05893705724906E-35
     -2.05893705724906E-35   0.00000000000000E+00  -1.05823523837163E-15   0.00000000000000E+00   0.00000000000000E+00
      0.00000000000000E+00   0.00000000000000E+00   1.39284500263232E-13  -2.03910169392581E-14   1.18893483323974E-13
     -1.06603070020109E-14   1.00000000000000E+00   1.00000000000000E+00   0.00000000000000E+00   0.00000000000000E+00
      2.55085482208313E-08   7.31824620013380E-21   2.55085482208387E-08   7.25803670922141E-15   0.00000000000000E+00
      0.00000000000000E+00   0.00000000000000E+00   0.00000000000000E+00  -2.55086671143220E-08   6.22767443084752E-25
     -2.55086671143220E-08   4.46050553116115E-15
      8.91936000000000E-03
     -9.77701600000000E-01  -9.77701600000000E-01   0.00000000000000E+00   0.00000000000000E+00   5.63387640946072E-35
     -5.63387640946072E-35   0.00000000000000E+00  -1.05346175272514E-15   0.00000000000000E+00   0.00000000000000E+00
      0.00000000000000E+00   0.00000000000000E+00   4.10713349053416E-13  -2.03903845197654E-14   3.90322964533650E-13
     -1.06604082241361E-14   1.00000000000000E+00   1.00000000000000E+00   0.00000000000000E+00   0.00000000000000E+00
      2.69540258910543E-08   7.31824641788158E-21   2.69540258910616E-08   7.25571194263958E-15   0.00000000000000E+00
      0.00000000000000E+00   0.00000000000000E+00   0.00000000000000E+00  -2.69544162140262E-08   1.79530791882880E-24
     -2.69544162140262E-08   4.45815803422164E-15
      1.25751680000000E-02
     -9.68562080000000E-01  -9.68562080000000E-01   0.00000000000000E+00   0.00000000000000E+00   1.57102336961489E-36
     -1.57102336961489E-36   0.00000000000000E+00  -1.04725641814063E-15   0.00000000000000E+00   0.00000000000000E+00
      0.00000000000000E+00   0.00000000000000E+00   7.10208182990214E-20  -2.03895822217011E-14  -2.03895112008828E-14
     -1.06605403851158E-14   1.00000000000000E+00   1.00000000000000E+00   0.00000000000000E+00   0.00000000000000E+00
      2.89564096975662E-08   7.31824726775834E-21   2.89564096975735E-08   7.25268978612360E-15   0.00000000000000E+00
      0.00000000000000E+00   0.00000000000000E+00   0.00000000000000E+00  -2.89563893080623E-08   2.14738939402448E-26
     -2.89563893080623E-08   4.45510701713282E-15
      1.72546022400000E-02
     -9.56863494400000E-01  -9.56863494400000E-01   0.00000000000000E+00   0.00000000000000E+00   1.51941003214594E-36
     -1.51941003214594E-36   0.00000000000000E+00  -1.03931391776867E-15   0.00000000000000E+00   0.00000000000000E+00
      0.00000000000000E+00   0.00000000000000E+00  -8.32506866983918E-20  -2.03885866710287E-14  -2.03886699217154E-14
     -1.06607105160060E-14   1.00000000000000E+00   1.00000000000000E+00   0.00000000000000E+00   0.00000000000000E+00
      3.17381222633869E-08   7.31824799565103E-21   3.17381222633942E-08   7.24882149276711E-15   0.00000000000000E+00
      0.00000000000000E+00   0.00000000000000E+00   0.00000000000000E+00  -3.17381018747250E-08  -1.31854329446628E-26
     -3.17381018747250E-08   4.45120294100749E-15
      2.32442780672000E-02
     -9.41889304832000E-01  -9.41889304832000E-01   0.00000000000000E+00   0.00000000000000E+00   1.60300428073693E-36
     -1.60300428073693E-36   0.00000000000000E+00  -1.02914806153438E-15   0.00000000000000E+00   0.00000000000000E+00
      0.00000000000000E+00   0.00000000000000E+00  -2.98279950607039E-19  -2.03873610972868E-14  -2.03876593772374E-14
     -1.06609299095629E-14   1.00000000000000E+00   1.00000000000000E+00   0.00000000000000E+00   0.00000000000000E+00
      3.56921135884108E-08   7.31824897227337E-21   3.56921135884181E-08   7.24387018872104E-15   0.00000000000000E+00
      0.00000000000000E+00   0.00000000000000E+00   0.00000000000000E+00  -3.56920932007593E-08   3.96180405256084E-26
     -3.56920932007593E-08   4.44620778237623E-15
      3.09110631260160E-02
     -9.22722342184960E-01  -9.22722342184960E-01   0.00000000000000E+00   0.00000000000000E+00   1.59656572731522E-36
     -1.59656572731522E-36   0.00000000000000E+00  -1.01613667183027E-15   0.00000000000000E+00   0.00000000000000E+00
      0.00000000000000E+00   0.00000000000000E+00  -4.42458430307353E-19  -2.03858672607610E-14  -2.03863097191913E-14
     -1.06612134954120E-14   1.00000000000000E+00   1.00000000000000E+00   0.00000000000000E+00   0.00000000000000E+00
      4.14797686828967E-08   7.31825030740040E-21   4.14797686829041E-08   7.23753270487810E-15   0.00000000000000E+00
      0.00000000000000E+00   0.00000000000000E+00   0.00000000000000E+00  -4.14797482965950E-08   4.19838274728939E-27
     -4.14797482965950E-08   4.43981746236417E-15
      4.07245480013005E-02
     -8.98188629996749E-01  -8.98188629996749E-01   0.00000000000000E+00   0.00000000000000E+00   1.61722697806273E-36
     -1.61722697806273E-36   0.00000000000000E+00  -9.99483608061393E-16   0.00000000000000E+00   0.00000000000000E+00
      0.00000000000000E+00   0.00000000000000E+00  -6.74971570597356E-18  -2.03840692229687E-14  -2.03908189386747E-14
     -1.06615812252724E-14   1.00000000000000E+00   1.00000000000000E+00   0.00000000000000E+00   0.00000000000000E+00
      5.02754887630109E-08   7.31825217690132E-21   5.02754887630182E-08   7.22942103232063E-15   0.00000000000000E+00
      0.00000000000000E+00   0.00000000000000E+00   0.00000000000000E+00  -5.02754683722000E-08   2.20436301758679E-26
     -5.02754683722000E-08   4.43164380101314E-15
      5.32858086416646E-02
     -8.66785478395838E-01  -8.66785478395838E-01   0.00000000000000E+00   0.00000000000000E+00   1.59331268110422E-36
     -1.59331268110422E-36   0.00000000000000E+00  -9.78170230721403E-16   0.00000000000000E+00   0.00000000000000E+00
      0.00000000000000E+00   0.00000000000000E+00  -4.40099393636218E-17  -2.03819403837653E-14  -2.04259503231289E-14
     -1.06620601611709E-14   1.00000000000000E+00   1.00000000000000E+00   0.00000000000000E+00   0.00000000000000E+00
      6.42996522219848E-08   7.31825488977366E-21   6.42996522219921E-08   7.21903859194440E-15   0.00000000000000E+00
      0.00000000000000E+00   0.00000000000000E+00   0.00000000000000E+00  -6.42996317960428E-08   7.46471736827859E-28
     -6.42996317960428E-08   4.42119179994794E-15
      6.93642222613307E-02
     -8.26589444346673E-01  -8.26589444346673E-01   0.00000000000000E+00   0.00000000000000E+00   1.53690035421812E-36
     -1.53690035421812E-36   0.00000000000000E+00  -9.50893401431039E-16   0.00000000000000E+00   0.00000000000000E+00
      0.00000000000000E+00   0.00000000000000E+00   6.47994333699045E-17  -2.03794758780027E-14  -2.03146764446328E-14
     -1.06626877764035E-14   1.00000000000000E+00   1.00000000000000E+00   0.00000000000000E+00   0.00000000000000E+00
      8.80723407319815E-08   7.31825903753351E-21   8.80723407319888E-08   7.20574985443633E-15   0.00000000000000E+00
      0.00000000000000E+00   0.00000000000000E+00   0.00000000000000E+00  -8.80723204173133E-08   2.78190889254256E-26
     -8.80723204173133E-08   4.40783132339817E-15
      8.99445916945033E-02
     -7.75138520763742E-01  -7.75138520763742E-01   0.00000000000000E+00   0.00000000000000E+00   1.53162992769874E-36
     -1.53162992769874E-36   0.00000000000000E+00  -9.15986338062869E-16   0.00000000000000E+00   0.00000000000000E+00
      0.00000000000000E+00   0.00000000000000E+00   1.46732185773428E-14  -2.03767124866539E-14  -5.70349390931111E-15
     -1.06635174944844E-14   1.00000000000000E+00   1.00000000000000E+00   0.00000000000000E+00   0.00000000000000E+00
      1.31636371384438E-07   7.31826586662264E-21   1.31636371384445E-07   7.18874138138776E-15   0.00000000000000E+00
      0.00000000000000E+00   0.00000000000000E+00   0.00000000000000E+00  -1.31636365680953E-07   7.45761426941450E-27
     -1.31636365680953E-07   4.39076245115947E-15
      1.00000000000000E-01
     -7.50000000000000E-01  -7.50000000000000E-01   0.00000000000000E+00   0.00000000000000E+00   1.60559961430046E-36
     -1.60559961430046E-36   0.00000000000000E+00  -8.98934074502340E-16   0.00000000000000E+00   0.00000000000000E+00
      0.00000000000000E+00   0.00000000000000E+00   1.74519482764361E-15  -2.03755116991253E-14  -1.86303168714817E-14
     -1.06639347250011E-14   1.00000000000000E+00   1.00000000000000E+00   0.00000000000000E+00   0.00000000000000E+00
      1.60124423387947E-07   7.31827004090904E-21   1.60124423387955E-07   7.18043150400945E-15   0.00000000000000E+00
      0.00000000000000E+00   0.00000000000000E+00   0.00000000000000E+00  -1.60124404757640E-07   2.66402139094338E-26
     -1.60124404757640E-07   4.38243729549404E-15
      1.26342872874461E-01
     -6.84142817813848E-01  -6.84142817813848E-01   0.00000000000000E+00   0.00000000000000E+00   1.59237214592718E-36
     -1.59237214592718E-36   0.00000000000000E+00  -8.54270797473666E-16   0.00000000000000E+00   0.00000000000000E+00
      0.00000000000000E+00   0.00000000000000E+00   6.97135490702935E-19  -2.03728149566925E-14  -2.03721178212018E-14
     -1.06650692787909E-14   1.00000000000000E+00   1.00000000000000E+00   0.00000000000000E+00   0.00000000000000E+00
      2.67002952384424E-07   7.31828470774228E-21   2.67002952384431E-07   7.15866172486140E-15   0.00000000000000E+00
      0.00000000000000E+00   0.00000000000000E+00   0.00000000000000E+00  -2.67002932012316E-07  -1.12652850344729E-26
     -2.67002932012316E-07   4.36067835140313E-15
      1.59534892696282E-01
     -6.01162768259296E-01  -6.01162768259296E-01   0.00000000000000E+00   0.00000000000000E+00   1.57206467521664E-36
     -1.57206467521664E-36   0.00000000000000E+00  -7.98015434145991E-16   0.00000000000000E+00   0.00000000000000E+00
      0.00000000000000E+00   0.00000000000000E+00   8.55913537432838E-16  -2.03704485872722E-14  -1.95145350498393E-14
     -1.06665985722226E-14   1.00000000000000E+00   1.00000000000000E+00   0.00000000000000E+00   0.00000000000000E+00
      5.05696825989625E-07   7.31831524059464E-21   5.05696825989632E-07   7.13122851763399E-15   0.00000000000000E+00
      0.00000000000000E+00   0.00000000000000E+00   0.00000000000000E+00  -5.05696806475099E-07   1.47347707962764E-27
     -5.05696806475099E-07   4.33338548873458E-15
      2.00000000000000E-01
     -5.00000000000000E-01  -5.00000000000000E-01   0.00000000000000E+00   0.00000000000000E+00   1.59041535942209E-36
     -1.59041535942209E-36   0.00000000000000E+00  -7.29463017261333E-16   0.00000000000000E+00   0.00000000000000E+00
      0.00000000000000E+00   0.00000000000000E+00   3.06041361309756E-19  -2.03699967953185E-14  -2.03696907539572E-14
     -1.06686535714740E-14   1.00000000000000E+00   1.00000000000000E+00   0.00000000000000E+00   0.00000000000000E+00
      1.08754394489457E-06   7.31838616556359E-21   1.08754394489457E-06   7.09776468194076E-15   0.00000000000000E+00
      0.00000000000000E+00   0.00000000000000E+00   0.00000000000000E+00  -1.08754392452489E-06  -2.10072765778895E-26
     -1.08754392452489E-06   4.30035190679460E-15
      2.41821944975494E-01
     -3.95445137561265E-01  -3.95445137561265E-01   0.00000000000000E+00   0.00000000000000E+00   1.55912619822609E-36
     -1.55912619822609E-36   0.00000000000000E+00  -6.58641734873786E-16   0.00000000000000E+00   0.00000000000000E+00
      0.00000000000000E+00   0.00000000000000E+00   5.28522099201605E-14  -2.03750573976864E-14   3.24771525224741E-14
     -1.06710723139365E-14   1.00000000000000E+00   1.00000000000000E+00   0.00000000000000E+00   0.00000000000000E+00
      2.34545423153754E-06   7.31853556854972E-21   2.34545423153755E-06   7.06311964134856E-15   0.00000000000000E+00
      0.00000000000000E+00   0.00000000000000E+00   0.00000000000000E+00  -2.34545426401471E-06  -1.71321813459253E-26
     -2.34545426401471E-06   4.26659440746173E-15
      2.94517595644617E-01
     -2.63706010888458E-01  -2.63706010888458E-01   0.00000000000000E+00   0.00000000000000E+00   1.59232871796807E-36
     -1.59232871796807E-36   0.00000000000000E+00  -5.69435119886866E-16   0.00000000000000E+00   0.00000000000000E+00
      0.00000000000000E+00   0.00000000000000E+00  -1.25313143872031E-15  -2.03975174237286E-14  -2.16506488624489E-14
     -1.06747241696204E-14   1.00000000000000E+00   1.00000000000000E+00   0.00000000000000E+00   0.00000000000000E+00
      5.86819661415162E-06   7.31894831044271E-21   5.86819661415162E-06   7.01926050550855E-15   0.00000000000000E+00
      0.00000000000000E+00   0.00000000000000E+00   0.00000000000000E+00  -5.86819659250104E-06  -8.94269759848644E-26
     -5.86819659250104E-06   4.22489878399878E-15
      3.00000000000000E-01
     -2.50000000000000E-01  -2.50000000000000E-01   0.00000000000000E+00   0.00000000000000E+00   1.51320665973914E-36
     -1.51320665973914E-36   0.00000000000000E+00  -5.60154870727641E-16   0.00000000000000E+00   0.00000000000000E+00
      0.00000000000000E+00   0.00000000000000E+00  -2.06763865432648E-14  -2.04013880086206E-14  -4.10777745518854E-14
     -1.06751534211897E-14   1.00000000000000E+00   1.00000000000000E+00   0.00000000000000E+00   0.00000000000000E+00
      6.42758552796417E-06   7.31901360233186E-21   6.42758552796418E-06   7.01467551358006E-15   0.00000000000000E+00
      0.00000000000000E+00   0.00000000000000E+00   0.00000000000000E+00  -6.42758548688647E-06  -3.02164905168624E-26
     -6.42758548688647E-06   4.22063277833734E-15
      3.66396519843095E-01
     -8.40087003922634E-02  -8.40087003922634E-02   0.00000000000000E+00   0.00000000000000E+00   1.53585898617018E-36
     -1.53585898617018E-36   0.00000000000000E+00  -4.47748623027578E-16   0.00000000000000E+00   0.00000000000000E+00
      0.00000000000000E+00   0.00000000000000E+00  -3.88300504199462E-16  -2.04818535973244E-14  -2.08701541015238E-14
     -1.06813135109700E-14   1.00000000000000E+00   1.00000000000000E+00   0.00000000000000E+00   0.00000000000000E+00
      1.77548297729719E-05   7.32033211291351E-21   1.77548297729720E-05   6.95860516190548E-15   0.00000000000000E+00
      0.00000000000000E+00   0.00000000000000E+00   0.00000000000000E+00  -1.77548297521018E-05  -1.72557796896303E-25
     -1.77548297521018E-05   4.17045697209204E-15
      4.00000000000000E-01
      0.00000000000000E+00   0.00000000000000E+00   0.00000000000000E+00   0.00000000000000E+00   1.58847052130538E-36
     -1.58847052130538E-36   0.00000000000000E+00  -3.90837593249922E-16   0.00000000000000E+00   0.00000000000000E+00
      0.00000000000000E+00   0.00000000000000E+00   7.16637046655998E-14  -2.05511964511926E-14   5.11125082144072E-14
     -1.06852209976495E-14   1.00000000000000E+00   1.00000000000000E+00   0.00000000000000E+00   0.00000000000000E+00
      2.76631278878570E-05   7.32148359790797E-21   2.76631278878571E-05   6.92972162874002E-15   0.00000000000000E+00
      0.00000000000000E+00   0.00000000000000E+00   0.00000000000000E+00  -2.76631279389696E-05  -2.75995192016728E-25
     -2.76631279389696E-05   4.14633696215945E-15
      4.82331684605437E-01
      2.05829211513593E-01   2.05829211513593E-01   0.00000000000000E+00   0.00000000000000E+00   1.53603491439549E-36
     -1.53603491439549E-36   0.00000000000000E+00  -2.51347441005201E-16   0.00000000000000E+00   0.00000000000000E+00
      0.00000000000000E+00   0.00000000000000E+00  -3.80441951102666E-17  -2.08027676477778E-14  -2.08408118428880E-14
     -1.06972397266394E-14   1.00000000000000E+00   1.00000000000000E+00   0.00000000000000E+00   0.00000000000000E+00
      6.63705683068050E-05   7.32598005812410E-21   6.63705683068050E-05   6.85720282743771E-15   0.00000000000000E+00
      0.00000000000000E+00   0.00000000000000E+00   0.00000000000000E+00  -6.63705682859645E-05  -5.85929241219155E-25
     -6.63705682859645E-05   4.09138434020688E-15
      5.00000000000000E-01
      2.50000000000000E-01   2.50000000000000E-01   0.00000000000000E+00   0.00000000000000E+00   1.59019390898979E-36
     -1.59019390898979E-36   0.00000000000000E+00  -2.21415009003417E-16   0.00000000000000E+00   0.00000000000000E+00
      0.00000000000000E+00   0.00000000000000E+00   3.64687839239756E-17  -2.08683317213307E-14  -2.08318629374067E-14
     -1.07002444007416E-14   1.00000000000000E+00   1.00000000000000E+00   0.00000000000000E+00   0.00000000000000E+00
      7.72973659087616E-05   7.32724954239728E-21   7.72973659087617E-05   6.84132748998450E-15   0.00000000000000E+00
      0.00000000000000E+00   0.00000000000000E+00   0.00000000000000E+00  -7.72973658879300E-05  -7.24708734441642E-25
     -7.72973658879300E-05   4.08033191976054E-15
      6.00000000000000E-01
      5.00000000000000E-01   5.00000000000000E-01   0.00000000000000E+00   0.00000000000000E+00   1.59057676574636E-36
     -1.59057676574636E-36   0.00000000000000E+00  -5.21976222560441E-17   0.00000000000000E+00   0.00000000000000E+00
      0.00000000000000E+00   0.00000000000000E+00  -2.52009406626916E-19  -2.12674409738443E-14  -2.12676929832510E-14
     -1.07195063750096E-14   1.00000000000000E+00   1.00000000000000E+00   0.00000000000000E+00   0.00000000000000E+00
      1.53366871368826E-04   7.33609338553075E-21   1.53366871368826E-04   6.74986957841635E-15   0.00000000000000E+00
      0.00000000000000E+00   0.00000000000000E+00   0.00000000000000E+00  -1.53366871347559E-04  -1.34733354588912E-24
     -1.53366871347559E-04   4.02183441884924E-15
      7.00000000000000E-01
      7.50000000000000E-01   7.50000000000000E-01   0.00000000000000E+00   0.00000000000000E+00   8.64024214565755E-37
     -8.64024214565755E-37   0.00000000000000E+00   1.16337435981874E-16   0.00000000000000E+00   0.00000000000000E+00
      0.00000000000000E+00   0.00000000000000E+00  -3.23422304486101E-17  -2.16482856365563E-14  -2.16806278670049E-14
     -1.07415396628064E-14   1.00000000000000E+00   1.00000000000000E+00   0.00000000000000E+00   0.00000000000000E+00
      2.46801067095382E-04   7.34697373151242E-21   2.46801067095382E-04   6.65668085561581E-15   0.00000000000000E+00
      0.00000000000000E+00   0.00000000000000E+00   0.00000000000000E+00  -2.46801067073702E-04  -2.16853327732496E-24
     -2.46801067073702E-04   3.96852137120871E-15
      8.00000000000000E-01
      1.00000000000000E+00   1.00000000000000E+00   0.00000000000000E+00   0.00000000000000E+00  -1.99226518452800E-36
      1.99226518452800E-36   0.00000000000000E+00   2.83769604563906E-16   0.00000000000000E+00   0.00000000000000E+00
      0.00000000000000E+00   0.00000000000000E+00   7.01006447004637E-19  -2.19707075322046E-14  -2.19700065257576E-14
     -1.07652487642338E-14   1.00000000000000E+00   1.00000000000000E+00   0.00000000000000E+00   0.00000000000000E+00
      3.50286347761581E-04   7.35904730743229E-21   3.50286347761581E-04   6.56286177331995E-15   0.00000000000000E+00
      0.00000000000000E+00   0.00000000000000E+00   0.00000000000000E+00  -3.50286347739612E-04  -3.03297305015909E-24
     -3.50286347739612E-04   3.91861738634987E-15
      9.00000000000000E-01
      1.25000000000000E+00   1.25000000000000E+00   0.00000000000000E+00   0.00000000000000E+00   2.87100363010261E-35
     -2.87100363010261E-35   0.00000000000000E+00   4.49769202354183E-16   0.00000000000000E+00   0.00000000000000E+00
      0.00000000000000E+00   0.00000000000000E+00   9.95364177817393E-19  -2.22329207246234E-14  -2.22319253604456E-14
     -1.07899386556742E-14   1.00000000000000E+00   1.00000000000000E+00   0.00000000000000E+00   0.00000000000000E+00
      4.59077847526174E-04   7.37176380182772E-21   4.59077847526174E-04   6.46916492067699E-15   0.00000000000000E+00
      0.00000000000000E+00   0.00000000000000E+00   0.00000000000000E+00  -4.59077847503943E-04  -4.00078385715197E-24
     -4.59077847503943E-04   3.87100453264307E-15
      1.00000000000000E+00
      1.50000000000000E+00   1.50000000000000E+00   0.00000000000000E+00   0.00000000000000E+00  -1.42980181861237E-34
      1.42980181861237E-34   0.00000000000000E+00   6.14095288214548E-16   0.00000000000000E+00   0.00000000000000E+00
      0.00000000000000E+00   0.00000000000000E+00  -1.76566308054879E-19  -2.24457660358600E-14  -2.24459426021681E-14
     -1.08151695137966E-14   1.00000000000000E+00   1.00000000000000E+00   0.00000000000000E+00   0.00000000000000E+00
      5.70123163686981E-04   7.38477272956734E-21   5.70123163686981E-04   6.37610484105957E-15   0.00000000000000E+00
      0.00000000000000E+00   0.00000000000000E+00   0.00000000000000E+00  -5.70123163664533E-04  -5.01317400162057E-24
     -5.70123163664533E-04   3.82496938452250E-15
}
