DF-ISE text

Info {
  version   = 1.0
  type      = xyplot
  datasets  = [
    "time"
    "gate OuterVoltage" "gate InnerVoltage" "gate QuasiFermiPotential" "gate DisplacementCurrent" "gate eCurrent"
    "gate hCurrent" "gate TotalCurrent" "gate Charge" "substrate OuterVoltage" "substrate InnerVoltage"
    "substrate QuasiFermiPotential" "substrate DisplacementCurrent" "substrate eCurrent" "substrate hCurrent" "substrate TotalCurrent"
    "substrate Charge" "drain OuterVoltage" "drain InnerVoltage" "drain QuasiFermiPotential" "drain DisplacementCurrent"
    "drain eCurrent" "drain hCurrent" "drain TotalCurrent" "drain Charge" "source OuterVoltage"
    "source InnerVoltage" "source QuasiFermiPotential" "source DisplacementCurrent" "source eCurrent" "source hCurrent"
    "source TotalCurrent" "source Charge" ]
  functions = [
    Time
    OuterVoltage InnerVoltage QuasiFermiPotential DisplacementCurrent eCurrent
    hCurrent TotalCurrent Charge OuterVoltage InnerVoltage
    QuasiFermiPotential DisplacementCurrent eCurrent hCurrent TotalCurrent
    Charge OuterVoltage InnerVoltage QuasiFermiPotential DisplacementCurrent
    eCurrent hCurrent TotalCurrent Charge OuterVoltage
    InnerVoltage QuasiFermiPotential DisplacementCurrent eCurrent hCurrent
    TotalCurrent Charge ]
}

Data {
      0.00000000000000E+00
      1.00000000000000E+00   1.00000000000000E+00   0.00000000000000E+00   0.00000000000000E+00   2.43810603694018E-37
     -2.43810603694018E-37   0.00000000000000E+00   8.50871867196693E-16   0.00000000000000E+00   0.00000000000000E+00
      0.00000000000000E+00   0.00000000000000E+00   5.92062600215440E-15   1.08540572993304E-18   5.92171140788433E-15
      2.35652086853120E-15  -1.00000000000000E+00  -1.00000000000000E+00   0.00000000000000E+00   0.00000000000000E+00
     -1.99920620870228E-21  -7.28541843233198E-04  -7.28541843233198E-04  -2.03891155781638E-15   0.00000000000000E+00
      0.00000000000000E+00   0.00000000000000E+00   0.00000000000000E+00   9.85816469437863E-23   7.28541843227278E-04
      7.28541843227278E-04  -1.16848117791153E-15
      1.00000000000000E-03
      9.97500000000000E-01   9.97500000000000E-01   0.00000000000000E+00   0.00000000000000E+00   2.47206344430373E-37
     -2.47206344430373E-37   0.00000000000000E+00   8.49503695888365E-16   0.00000000000000E+00   0.00000000000000E+00
      0.00000000000000E+00   0.00000000000000E+00   5.92074766309961E-15   6.89882301897032E-19   5.92143754540150E-15
      2.35656000592388E-15  -1.00000000000000E+00  -1.00000000000000E+00   0.00000000000000E+00   0.00000000000000E+00
     -1.99929703105979E-21  -7.29131600378914E-04  -7.29131600378914E-04  -2.03819146147830E-15   0.00000000000000E+00
      0.00000000000000E+00   0.00000000000000E+00   0.00000000000000E+00   9.86617751198840E-23   7.29131600372994E-04
      7.29131600372994E-04  -1.16787224033394E-15
      2.28000000000000E-03
      9.94300000000000E-01   9.94300000000000E-01   0.00000000000000E+00   0.00000000000000E+00   9.06414638061293E-37
     -9.06414638061293E-37   0.00000000000000E+00   8.47752407652302E-16   0.00000000000000E+00   0.00000000000000E+00
      0.00000000000000E+00   0.00000000000000E+00   5.92090363197666E-15   1.81378762627490E-14   2.40587798947256E-14
      2.35661016689038E-15  -1.00000000000000E+00  -1.00000000000000E+00   0.00000000000000E+00   0.00000000000000E+00
     -1.99941326054804E-21  -7.29888448309238E-04  -7.29888448309238E-04  -2.03726943595107E-15   0.00000000000000E+00
      0.00000000000000E+00   0.00000000000000E+00   0.00000000000000E+00   9.87655000429174E-23   7.29888448285180E-04
      7.29888448285180E-04  -1.16709313859162E-15
      3.94400000000000E-03
      9.90140000000000E-01   9.90140000000000E-01   0.00000000000000E+00   0.00000000000000E+00   2.11606605531712E-36
     -2.11606605531712E-36   0.00000000000000E+00   8.45475685230517E-16   0.00000000000000E+00   0.00000000000000E+00
      0.00000000000000E+00   0.00000000000000E+00   5.92110679400674E-15   4.79362483777566E-14   5.38573551717633E-14
      2.35667548465643E-15  -1.00000000000000E+00  -1.00000000000000E+00   0.00000000000000E+00   0.00000000000000E+00
     -1.99956468853165E-21  -7.30875602861174E-04  -7.30875602861174E-04  -2.03607030051097E-15   0.00000000000000E+00
      0.00000000000000E+00   0.00000000000000E+00   0.00000000000000E+00   9.88982971617284E-23   7.30875602807319E-04
      7.30875602807319E-04  -1.16608086937597E-15
      6.10720000000000E-03
      9.84732000000000E-01   9.84732000000000E-01   0.00000000000000E+00   0.00000000000000E+00   5.63284480381268E-36
     -5.63284480381268E-36   0.00000000000000E+00   8.42515866413769E-16   0.00000000000000E+00   0.00000000000000E+00
      0.00000000000000E+00   0.00000000000000E+00   5.92137158274103E-15   1.39682938731646E-13   1.45604310314387E-13
      2.35676058253304E-15  -1.00000000000000E+00  -1.00000000000000E+00   0.00000000000000E+00   0.00000000000000E+00
     -1.99976143784746E-21  -7.32164404718848E-04  -7.32164404718848E-04  -2.03451057666231E-15   0.00000000000000E+00
      0.00000000000000E+00   0.00000000000000E+00   0.00000000000000E+00   9.90724816405163E-23   7.32164404573244E-04
      7.32164404573244E-04  -1.16476587228450E-15
      8.91936000000000E-03
      9.77701600000000E-01   9.77701600000000E-01   0.00000000000000E+00   0.00000000000000E+00   1.57233217559956E-35
     -1.57233217559956E-35   0.00000000000000E+00   8.38667965772258E-16   0.00000000000000E+00   0.00000000000000E+00
      0.00000000000000E+00   0.00000000000000E+00   5.92171697082253E-15   4.73541102818309E-13   4.79462819789131E-13
      2.35687153440319E-15  -1.00000000000000E+00  -1.00000000000000E+00   0.00000000000000E+00   0.00000000000000E+00
     -2.00001587561420E-21  -7.33849386942165E-04  -7.33849386942165E-04  -2.03248147823664E-15   0.00000000000000E+00
      0.00000000000000E+00   0.00000000000000E+00   0.00000000000000E+00   9.92961532047241E-23   7.33849386462703E-04
      7.33849386462703E-04  -1.16305802193880E-15
      1.25751680000000E-02
      9.68562080000000E-01   9.68562080000000E-01   0.00000000000000E+00   0.00000000000000E+00   2.42615593474562E-37
     -2.42615593474562E-37   0.00000000000000E+00   8.33665585791616E-16   0.00000000000000E+00   0.00000000000000E+00
      0.00000000000000E+00   0.00000000000000E+00   5.92216861887840E-15  -5.11510619074384E-20   5.92211746781649E-15
      2.35701641007796E-15  -1.00000000000000E+00  -1.00000000000000E+00   0.00000000000000E+00   0.00000000000000E+00
     -2.00036341642559E-21  -7.36056790229113E-04  -7.36056790229113E-04  -2.02984102193282E-15   0.00000000000000E+00
      0.00000000000000E+00   0.00000000000000E+00   0.00000000000000E+00   9.96044734992473E-23   7.36056790223193E-04
      7.36056790223193E-04  -1.16084097393675E-15
      1.72546022400000E-02
      9.56863494400000E-01   9.56863494400000E-01   0.00000000000000E+00   0.00000000000000E+00   2.44153960645867E-37
     -2.44153960645867E-37   0.00000000000000E+00   8.27262502516649E-16   0.00000000000000E+00   0.00000000000000E+00
      0.00000000000000E+00   0.00000000000000E+00   5.92275064659730E-15   4.10682752155678E-18   5.92685747411886E-15
      2.35720219397418E-15  -1.00000000000000E+00  -1.00000000000000E+00   0.00000000000000E+00   0.00000000000000E+00
     -2.00080147797984E-21  -7.38901687756670E-04  -7.38901687756670E-04  -2.02645772102099E-15   0.00000000000000E+00
      0.00000000000000E+00   0.00000000000000E+00   0.00000000000000E+00   9.99920561881748E-23   7.38901687750745E-04
      7.38901687750745E-04  -1.15800697546985E-15
      2.32442780672000E-02
      9.41889304832000E-01   9.41889304832000E-01   0.00000000000000E+00   0.00000000000000E+00   2.48527755361483E-37
     -2.48527755361483E-37   0.00000000000000E+00   8.19066385370296E-16   0.00000000000000E+00   0.00000000000000E+00
      0.00000000000000E+00   0.00000000000000E+00   5.92348902731066E-15   2.70728862486548E-17   5.95056191355932E-15
      2.35743862338440E-15  -1.00000000000000E+00  -1.00000000000000E+00   0.00000000000000E+00   0.00000000000000E+00
     -2.00135848800361E-21  -7.42519088282451E-04  -7.42519088282451E-04  -2.02212987400752E-15   0.00000000000000E+00
      0.00000000000000E+00   0.00000000000000E+00   0.00000000000000E+00   1.00484256117888E-22   7.42519088276503E-04
      7.42519088276503E-04  -1.15437513474716E-15
      3.09110631260160E-02
      9.22722342184960E-01   9.22722342184960E-01   0.00000000000000E+00   0.00000000000000E+00   2.42688174763003E-37
     -2.42688174763003E-37   0.00000000000000E+00   8.08574134293486E-16   0.00000000000000E+00   0.00000000000000E+00
      0.00000000000000E+00   0.00000000000000E+00   5.92440090550185E-15   7.24548186907103E-15   1.31698827745729E-14
      2.35773581517440E-15  -1.00000000000000E+00  -1.00000000000000E+00   0.00000000000000E+00   0.00000000000000E+00
     -2.00204736205969E-21  -7.46992546903139E-04  -7.46992546903139E-04  -2.01660830259868E-15   0.00000000000000E+00
      0.00000000000000E+00   0.00000000000000E+00   0.00000000000000E+00   1.01093585811068E-22   7.46992546889970E-04
      7.46992546889970E-04  -1.14970164686920E-15
      4.07245480013005E-02
      8.98188629996749E-01   8.98188629996749E-01   0.00000000000000E+00   0.00000000000000E+00   2.48890082317638E-37
     -2.48890082317638E-37   0.00000000000000E+00   7.95142420679290E-16   0.00000000000000E+00   0.00000000000000E+00
      0.00000000000000E+00   0.00000000000000E+00   5.92559036338989E-15   1.45031743440827E-16   6.07062210683072E-15
      2.35811944369583E-15  -1.00000000000000E+00  -1.00000000000000E+00   0.00000000000000E+00   0.00000000000000E+00
     -2.00294786800113E-21  -7.52840593739908E-04  -7.52840593739908E-04  -2.00951663217016E-15   0.00000000000000E+00
      0.00000000000000E+00   0.00000000000000E+00   0.00000000000000E+00   1.01890188493595E-22   7.52840593733839E-04
      7.52840593733839E-04  -1.14374523220494E-15
      5.32858086416646E-02
      8.66785478395838E-01   8.66785478395838E-01   0.00000000000000E+00   0.00000000000000E+00   2.43097869606488E-37
     -2.43097869606488E-37   0.00000000000000E+00   7.77949056706601E-16   0.00000000000000E+00   0.00000000000000E+00
      0.00000000000000E+00   0.00000000000000E+00   5.92710005834373E-15   7.59555939932895E-15   1.35226594576727E-14
      2.35860587393298E-15  -1.00000000000000E+00  -1.00000000000000E+00   0.00000000000000E+00   0.00000000000000E+00
     -2.00409244083359E-21  -7.60273670093707E-04  -7.60273670093707E-04  -2.00044045552970E-15   0.00000000000000E+00
      0.00000000000000E+00   0.00000000000000E+00   0.00000000000000E+00   1.02904224180305E-22   7.60273670080185E-04
      7.60273670080185E-04  -1.13611447510988E-15
      6.93642222613307E-02
      8.26589444346673E-01   8.26589444346673E-01   0.00000000000000E+00   0.00000000000000E+00   2.48274592063581E-37
     -2.48274592063581E-37   0.00000000000000E+00   7.55936866681862E-16   0.00000000000000E+00   0.00000000000000E+00
      0.00000000000000E+00   0.00000000000000E+00   5.92896741339331E-15   2.07804594402164E-15   8.00701335741496E-15
      2.35923542225557E-15  -1.00000000000000E+00  -1.00000000000000E+00   0.00000000000000E+00   0.00000000000000E+00
     -2.00552581208646E-21  -7.69582546047127E-04  -7.69582546047127E-04  -1.98884547150479E-15   0.00000000000000E+00
      0.00000000000000E+00   0.00000000000000E+00   0.00000000000000E+00   1.04177563206779E-22   7.69582546039122E-04
      7.69582546039122E-04  -1.12632681743266E-15
      8.99445916945033E-02
      7.75138520763742E-01   7.75138520763742E-01   0.00000000000000E+00   0.00000000000000E+00   2.56442794313360E-37
     -2.56442794313360E-37   0.00000000000000E+00   7.27758043892765E-16   0.00000000000000E+00   0.00000000000000E+00
      0.00000000000000E+00   0.00000000000000E+00   5.93135702985160E-15   1.63012663598628E-14   2.22326233897144E-14
      2.36003894698832E-15  -1.00000000000000E+00  -1.00000000000000E+00   0.00000000000000E+00   0.00000000000000E+00
     -2.00737676588427E-21  -7.81603257152313E-04  -7.81603257152313E-04  -1.97397341182846E-15   0.00000000000000E+00
      0.00000000000000E+00   0.00000000000000E+00   0.00000000000000E+00   1.05833485157304E-22   7.81603257130082E-04
      7.81603257130082E-04  -1.11382357905263E-15
      1.00000000000000E-01
      7.50000000000000E-01   7.50000000000000E-01   0.00000000000000E+00   0.00000000000000E+00   2.41520723466453E-37
     -2.41520723466453E-37   0.00000000000000E+00   7.13987273460239E-16   0.00000000000000E+00   0.00000000000000E+00
      0.00000000000000E+00   0.00000000000000E+00   5.93249337426379E-15   6.17070093518826E-16   6.54956346778261E-15
      2.36043529454327E-15  -1.00000000000000E+00  -1.00000000000000E+00   0.00000000000000E+00   0.00000000000000E+00
     -2.00826506843384E-21  -7.87371106340258E-04  -7.87371106340258E-04  -1.96671452865338E-15   0.00000000000000E+00
      0.00000000000000E+00   0.00000000000000E+00   0.00000000000000E+00   1.06595002010449E-22   7.87371106333710E-04
      7.87371106333710E-04  -1.10770803935011E-15
      1.26342872874461E-01
      6.84142817813848E-01   6.84142817813848E-01   0.00000000000000E+00   0.00000000000000E+00   2.76777544722291E-37
     -2.76777544722291E-37   0.00000000000000E+00   6.77909243934294E-16   0.00000000000000E+00   0.00000000000000E+00
      0.00000000000000E+00   0.00000000000000E+00   5.93544409810784E-15   1.61295614475020E-14   2.20650055456098E-14
      2.36147857503313E-15  -1.00000000000000E+00  -1.00000000000000E+00   0.00000000000000E+00   0.00000000000000E+00
     -2.01059380046163E-21  -8.02496746564173E-04  -8.02496746564173E-04  -1.94768333034447E-15   0.00000000000000E+00
      0.00000000000000E+00   0.00000000000000E+00   0.00000000000000E+00   1.08666185753943E-22   8.02496746542108E-04
      8.02496746542108E-04  -1.09170448862295E-15
      1.60061750153771E-01
      5.99845624615573E-01   5.99845624615573E-01   0.00000000000000E+00   0.00000000000000E+00   7.32375183918034E-37
     -7.32375183918034E-37   0.00000000000000E+00   6.31728766038202E-16   0.00000000000000E+00   0.00000000000000E+00
      0.00000000000000E+00   0.00000000000000E+00   5.93915521026731E-15   1.72388882097723E-13   1.78328037307990E-13
      2.36282347618322E-15  -1.00000000000000E+00  -1.00000000000000E+00   0.00000000000000E+00   0.00000000000000E+00
     -2.01355461738911E-21  -8.21788330497330E-04  -8.21788330497330E-04  -1.92330452150935E-15   0.00000000000000E+00
      0.00000000000000E+00   0.00000000000000E+00   0.00000000000000E+00   1.11326495132485E-22   8.21788330319004E-04
      8.21788330319004E-04  -1.07124772071207E-15
      2.00000000000000E-01
      5.00000000000000E-01   5.00000000000000E-01   0.00000000000000E+00   0.00000000000000E+00   1.88160382473186E-37
     -1.88160382473186E-37   0.00000000000000E+00   5.77033923250398E-16   0.00000000000000E+00   0.00000000000000E+00
      0.00000000000000E+00   0.00000000000000E+00   5.94351919827279E-15   4.80692888545230E-13   4.86636407743503E-13
      2.36443800985972E-15  -1.00000000000000E+00  -1.00000000000000E+00   0.00000000000000E+00   0.00000000000000E+00
     -2.01708135534898E-21  -8.44754869283450E-04  -8.44754869283450E-04  -1.89437478336773E-15   0.00000000000000E+00
      0.00000000000000E+00   0.00000000000000E+00   0.00000000000000E+00   1.14441958922936E-22   8.44754868796815E-04
      8.44754868796815E-04  -1.04709714974238E-15
      2.43160162917517E-01
      3.92099592706208E-01   3.92099592706208E-01   0.00000000000000E+00   0.00000000000000E+00  -1.18476549887154E-35
      1.18476549887154E-35   0.00000000000000E+00   5.17933069762143E-16   0.00000000000000E+00   0.00000000000000E+00
      0.00000000000000E+00   0.00000000000000E+00   5.94825334531206E-15   1.23341842108262E-12   1.23936667442794E-12
      2.36619497141374E-15  -1.00000000000000E+00  -1.00000000000000E+00   0.00000000000000E+00   0.00000000000000E+00
     -2.02092077582275E-21  -8.69731114473727E-04  -8.69731114473727E-04  -1.86301753558099E-15   0.00000000000000E+00
      0.00000000000000E+00   0.00000000000000E+00   0.00000000000000E+00   1.17831737515901E-22   8.69731113234362E-04
      8.69731113234362E-04  -1.02111050559490E-15
      2.98405171451938E-01
      2.53987071370154E-01   2.53987071370154E-01   0.00000000000000E+00   0.00000000000000E+00   2.38017192706496E-37
     -2.38017192706496E-37   0.00000000000000E+00   4.42326752325288E-16   0.00000000000000E+00   0.00000000000000E+00
      0.00000000000000E+00   0.00000000000000E+00   5.95433547776012E-15   2.56945616945089E-19   5.95459242337706E-15
      2.36847359882508E-15  -1.00000000000000E+00  -1.00000000000000E+00   0.00000000000000E+00   0.00000000000000E+00
     -2.02589490552325E-21  -9.01866646699851E-04  -9.01866646699851E-04  -1.82278783577201E-15   0.00000000000000E+00
      0.00000000000000E+00   0.00000000000000E+00   0.00000000000000E+00   1.22214180511486E-22   9.01866646693898E-04
      9.01866646693898E-04  -9.88012515378367E-16
      3.00000000000000E-01
      2.50000000000000E-01   2.50000000000000E-01   0.00000000000000E+00   0.00000000000000E+00   2.42816724825798E-37
     -2.42816724825798E-37   0.00000000000000E+00   4.40145313810943E-16   0.00000000000000E+00   0.00000000000000E+00
      0.00000000000000E+00   0.00000000000000E+00   5.95451170585479E-15   4.66577058684089E-19   5.95497828291348E-15
      2.36853979382009E-15  -1.00000000000000E+00  -1.00000000000000E+00   0.00000000000000E+00   0.00000000000000E+00
     -2.02603826902942E-21  -9.02797816233217E-04  -9.02797816233217E-04  -1.82162550168418E-15   0.00000000000000E+00
      0.00000000000000E+00   0.00000000000000E+00   0.00000000000000E+00   1.22341349915481E-22   9.02797816227264E-04
      9.02797816227264E-04  -9.87059605946850E-16
      3.69608710753371E-01
      7.59782231165721E-02   7.59782231165721E-02   0.00000000000000E+00   0.00000000000000E+00   2.66517969238866E-37
     -2.66517969238866E-37   0.00000000000000E+00   3.45004315249483E-16   0.00000000000000E+00   0.00000000000000E+00
      0.00000000000000E+00   0.00000000000000E+00   5.96226923266899E-15  -3.85280801747993E-18   5.95841642465151E-15
      2.37144228516607E-15  -1.00000000000000E+00  -1.00000000000000E+00   0.00000000000000E+00   0.00000000000000E+00
     -2.03230155941755E-21  -9.43479749852769E-04  -9.43479749852769E-04  -1.77083661299837E-15   0.00000000000000E+00
      0.00000000000000E+00   0.00000000000000E+00   0.00000000000000E+00   1.27899756066628E-22   9.43479749846811E-04
      9.43479749846811E-04  -9.45609987417188E-16
      4.00000000000000E-01
      0.00000000000000E+00   0.00000000000000E+00   0.00000000000000E+00   0.00000000000000E+00   2.41631946463292E-37
     -2.41631946463292E-37   0.00000000000000E+00   3.03522255877189E-16   0.00000000000000E+00   0.00000000000000E+00
      0.00000000000000E+00   0.00000000000000E+00   5.96571454530612E-15  -3.41148499116973E-19   5.96537339680700E-15
      2.37271244550384E-15  -1.00000000000000E+00  -1.00000000000000E+00   0.00000000000000E+00   0.00000000000000E+00
     -2.03502933627898E-21  -9.61198271586115E-04  -9.61198271586115E-04  -1.74863838851598E-15   0.00000000000000E+00
      0.00000000000000E+00   0.00000000000000E+00   0.00000000000000E+00   1.30319347430109E-22   9.61198271580150E-04
      9.61198271580150E-04  -9.27596312865036E-16
      4.87706975549248E-01
     -2.19267438873119E-01  -2.19267438873119E-01   0.00000000000000E+00   0.00000000000000E+00   2.92236636628041E-36
     -2.92236636628041E-36   0.00000000000000E+00   1.84089408509425E-16   0.00000000000000E+00   0.00000000000000E+00
      0.00000000000000E+00   0.00000000000000E+00   5.97560060019026E-15  -9.69103118528149E-18   5.96590956900497E-15
      2.37641130925467E-15  -1.00000000000000E+00  -1.00000000000000E+00   0.00000000000000E+00   0.00000000000000E+00
     -2.04286332484057E-21  -1.01216052619542E-03  -1.01216052619542E-03  -1.68459531938060E-15   0.00000000000000E+00
      0.00000000000000E+00   0.00000000000000E+00   0.00000000000000E+00   1.37290350758381E-22   1.01216052618946E-03
      1.01216052618946E-03  -8.75905398383485E-16
      5.00000000000000E-01
     -2.50000000000000E-01  -2.50000000000000E-01   0.00000000000000E+00   0.00000000000000E+00  -3.23568655161763E-35
      3.23568655161763E-35   0.00000000000000E+00   1.67389197912376E-16   0.00000000000000E+00   0.00000000000000E+00
      0.00000000000000E+00   0.00000000000000E+00   5.97693924800504E-15   5.28126115257818E-15   1.12582004005832E-14
      2.37693222929251E-15  -1.00000000000000E+00  -1.00000000000000E+00   0.00000000000000E+00   0.00000000000000E+00
     -2.04395833262231E-21  -1.01925092037482E-03  -1.01925092037482E-03  -1.67562590718288E-15   0.00000000000000E+00
      0.00000000000000E+00   0.00000000000000E+00   0.00000000000000E+00   1.38260808844889E-22   1.01925092036356E-03
      1.01925092036356E-03  -8.68695520022002E-16
      6.00000000000000E-01
     -5.00000000000000E-01  -5.00000000000000E-01   0.00000000000000E+00   0.00000000000000E+00   2.23138336525651E-37
     -2.23138336525651E-37   0.00000000000000E+00   3.20180374040385E-17   0.00000000000000E+00   0.00000000000000E+00
      0.00000000000000E+00   0.00000000000000E+00   5.98743913878237E-15   7.44164418736333E-19   5.98818330320111E-15
      2.38119520959570E-15  -1.00000000000000E+00  -1.00000000000000E+00   0.00000000000000E+00   0.00000000000000E+00
     -2.05278115369806E-21  -1.07649206218234E-03  -1.07649206218234E-03  -1.60282586447441E-15   0.00000000000000E+00
      0.00000000000000E+00   0.00000000000000E+00   0.00000000000000E+00   1.46098183048458E-22   1.07649206217635E-03
      1.07649206217635E-03  -8.10387382525312E-16
      7.00000000000000E-01
     -7.50000000000000E-01  -7.50000000000000E-01   0.00000000000000E+00   0.00000000000000E+00   4.10114562436833E-37
     -4.10114562436833E-37   0.00000000000000E+00  -1.02299570803345E-16   0.00000000000000E+00   0.00000000000000E+00
      0.00000000000000E+00   0.00000000000000E+00   5.99801662425577E-15   3.62031775128255E-18   6.00163694200706E-15
      2.38549563011618E-15  -1.00000000000000E+00  -1.00000000000000E+00   0.00000000000000E+00   0.00000000000000E+00
     -2.06140882751658E-21  -1.13253101781815E-03  -1.13253101781815E-03  -1.53047859640123E-15   0.00000000000000E+00
      0.00000000000000E+00   0.00000000000000E+00   0.00000000000000E+00   1.53779378772832E-22   1.13253101781215E-03
      1.13253101781215E-03  -7.52717462911606E-16
      8.00000000000000E-01
     -1.00000000000000E+00  -1.00000000000000E+00   0.00000000000000E+00   0.00000000000000E+00  -1.48027907563639E-36
      1.48027907563639E-36   0.00000000000000E+00  -2.35281160498052E-16   0.00000000000000E+00   0.00000000000000E+00
      0.00000000000000E+00   0.00000000000000E+00   6.00883001085582E-15  -6.57462877504509E-19   6.00817254797832E-15
      2.38983420786751E-15  -1.00000000000000E+00  -1.00000000000000E+00   0.00000000000000E+00   0.00000000000000E+00
     -2.06979467163111E-21  -1.18699728713660E-03  -1.18699728713660E-03  -1.45881861417224E-15   0.00000000000000E+00
      0.00000000000000E+00   0.00000000000000E+00   0.00000000000000E+00   1.61253704410186E-22   1.18699728713060E-03
      1.18699728713060E-03  -6.95734433197220E-16
      9.00000000000000E-01
     -1.25000000000000E+00  -1.25000000000000E+00   0.00000000000000E+00   0.00000000000000E+00  -4.17685405876504E-36
      4.17685405876504E-36   0.00000000000000E+00  -3.66672265816358E-16   0.00000000000000E+00   0.00000000000000E+00
      0.00000000000000E+00   0.00000000000000E+00   6.01887083575947E-15   6.15075486666441E-19   6.01948591124614E-15
      2.39421491199212E-15  -1.00000000000000E+00  -1.00000000000000E+00   0.00000000000000E+00   0.00000000000000E+00
     -2.07788566760966E-21  -1.23954456678570E-03  -1.23954456678570E-03  -1.38806144034685E-15   0.00000000000000E+00
      0.00000000000000E+00   0.00000000000000E+00   0.00000000000000E+00   1.68471714623812E-22   1.23954456677968E-03
      1.23954456677968E-03  -6.39481205828916E-16
      1.00000000000000E+00
     -1.50000000000000E+00  -1.50000000000000E+00   0.00000000000000E+00   0.00000000000000E+00   1.60428931594095E-34
     -1.60428931594095E-34   0.00000000000000E+00  -4.96273457029508E-16   0.00000000000000E+00   0.00000000000000E+00
      0.00000000000000E+00   0.00000000000000E+00   6.02817436731127E-15  -4.11840277015283E-20   6.02813318328357E-15
      2.39864577599694E-15  -1.00000000000000E+00  -1.00000000000000E+00   0.00000000000000E+00   0.00000000000000E+00
     -2.08562627379734E-21  -1.28980843372132E-03  -1.28980843372132E-03  -1.31839333332092E-15   0.00000000000000E+00
      0.00000000000000E+00   0.00000000000000E+00   0.00000000000000E+00   1.75384433925714E-22   1.28980843371529E-03
      1.28980843371529E-03  -5.83978985646501E-16
}
