DF-ISE text

Info {
  version   = 1.0
  type      = xyplot
  datasets  = [
    "time"
    "gate OuterVoltage" "gate InnerVoltage" "gate QuasiFermiPotential" "gate DisplacementCurrent" "gate eCurrent"
    "gate hCurrent" "gate TotalCurrent" "gate Charge" "substrate OuterVoltage" "substrate InnerVoltage"
    "substrate QuasiFermiPotential" "substrate DisplacementCurrent" "substrate eCurrent" "substrate hCurrent" "substrate TotalCurrent"
    "substrate Charge" "drain OuterVoltage" "drain InnerVoltage" "drain QuasiFermiPotential" "drain DisplacementCurrent"
    "drain eCurrent" "drain hCurrent" "drain TotalCurrent" "drain Charge" "source OuterVoltage"
    "source InnerVoltage" "source QuasiFermiPotential" "source DisplacementCurrent" "source eCurrent" "source hCurrent"
    "source TotalCurrent" "source Charge" ]
  functions = [
    Time
    OuterVoltage InnerVoltage QuasiFermiPotential DisplacementCurrent eCurrent
    hCurrent TotalCurrent Charge OuterVoltage InnerVoltage
    QuasiFermiPotential DisplacementCurrent eCurrent hCurrent TotalCurrent
    Charge OuterVoltage InnerVoltage QuasiFermiPotential DisplacementCurrent
    eCurrent hCurrent TotalCurrent Charge OuterVoltage
    InnerVoltage QuasiFermiPotential DisplacementCurrent eCurrent hCurrent
    TotalCurrent Charge ]
}

Data {
      0.00000000000000E+00
     -1.00000000000000E+00  -1.00000000000000E+00   0.00000000000000E+00   0.00000000000000E+00   1.64808298534612E-36
     -1.64808298534612E-36   0.00000000000000E+00  -1.06511298683694E-15   0.00000000000000E+00   0.00000000000000E+00
      0.00000000000000E+00   0.00000000000000E+00   2.94939573882368E-22  -7.42643256624566E-15  -7.42643227130609E-15
     -4.39057753573833E-15   1.00000000000000E+00   1.00000000000000E+00   0.00000000000000E+00   0.00000000000000E+00
      1.16578247292160E-10   8.55949663775288E-21   1.16578247300720E-10   3.39301183236956E-15   0.00000000000000E+00
      0.00000000000000E+00   0.00000000000000E+00   0.00000000000000E+00  -1.16570820868449E-10  -4.36935654802817E-27
     -1.16570820868449E-10   2.06267869020571E-15
      1.00000000000000E-03
     -9.97500000000000E-01  -9.97500000000000E-01   0.00000000000000E+00   0.00000000000000E+00   1.62856445745914E-36
     -1.62856445745914E-36   0.00000000000000E+00  -1.06334432925639E-15   0.00000000000000E+00   0.00000000000000E+00
      0.00000000000000E+00   0.00000000000000E+00   1.80925767952942E-21  -7.42461283553896E-15  -7.42461102628128E-15
     -4.39064139756168E-15   1.00000000000000E+00   1.00000000000000E+00   0.00000000000000E+00   0.00000000000000E+00
      1.20498350907171E-10   8.55949777341130E-21   1.20498350915730E-10   3.39222238665903E-15   0.00000000000000E+00
      0.00000000000000E+00   0.00000000000000E+00   0.00000000000000E+00  -1.20490926304704E-10   6.33455436136142E-26
     -1.20490926304704E-10   2.06176334015905E-15
      2.28000000000000E-03
     -9.94300000000000E-01  -9.94300000000000E-01   0.00000000000000E+00   0.00000000000000E+00   7.01951860129466E-36
     -7.01951860129466E-36   0.00000000000000E+00  -1.06108013447888E-15   0.00000000000000E+00   0.00000000000000E+00
      0.00000000000000E+00   0.00000000000000E+00  -3.31438182623814E-16  -7.42227740700269E-15  -7.75371558962650E-15
     -4.39072308373588E-15   1.00000000000000E+00   1.00000000000000E+00   0.00000000000000E+00   0.00000000000000E+00
      1.25712489016631E-10   8.55933182308133E-21   1.25712489025191E-10   3.39121175879474E-15   0.00000000000000E+00
      0.00000000000000E+00   0.00000000000000E+00   0.00000000000000E+00  -1.25704735309593E-10  -8.35139017883500E-24
     -1.25704735309601E-10   2.06059145942002E-15
      3.94400000000000E-03
     -9.90140000000000E-01  -9.90140000000000E-01   0.00000000000000E+00   0.00000000000000E+00   1.67863608746706E-35
     -1.67863608746706E-35   0.00000000000000E+00  -1.05813615656919E-15   0.00000000000000E+00   0.00000000000000E+00
      0.00000000000000E+00   0.00000000000000E+00  -9.63159209425657E-16  -7.41923015683944E-15  -8.38238936626509E-15
     -4.39082918041199E-15   1.00000000000000E+00   1.00000000000000E+00   0.00000000000000E+00   0.00000000000000E+00
      1.32835593710913E-10   8.55901250840392E-21   1.32835593719472E-10   3.38989771239322E-15   0.00000000000000E+00
      0.00000000000000E+00   0.00000000000000E+00   0.00000000000000E+00  -1.32827211330082E-10  -2.32627587563587E-23
     -1.32827211330105E-10   2.05906762458795E-15
      6.10720000000000E-03
     -9.84732000000000E-01  -9.84732000000000E-01   0.00000000000000E+00   0.00000000000000E+00   1.62568418396370E-36
     -1.62568418396370E-36   0.00000000000000E+00  -1.05430810033866E-15   0.00000000000000E+00   0.00000000000000E+00
      0.00000000000000E+00   0.00000000000000E+00  -5.03366635261060E-22  -7.41524789608448E-15  -7.41524839945112E-15
     -4.39096694552048E-15   1.00000000000000E+00   1.00000000000000E+00   0.00000000000000E+00   0.00000000000000E+00
      1.42712956230969E-10   8.55950368532318E-21   1.42712956239529E-10   3.38818906390838E-15   0.00000000000000E+00
      0.00000000000000E+00   0.00000000000000E+00   0.00000000000000E+00  -1.42705540991129E-10   2.60218010349232E-26
     -1.42705540991129E-10   2.05708598195077E-15
      8.87609600000000E-03
     -9.77809760000000E-01  -9.77809760000000E-01   0.00000000000000E+00   0.00000000000000E+00   1.65319384241444E-36
     -1.65319384241444E-36   0.00000000000000E+00  -1.04940673243698E-15   0.00000000000000E+00   0.00000000000000E+00
      0.00000000000000E+00   0.00000000000000E+00   2.62539299605976E-21  -7.41011161125463E-15  -7.41010898586163E-15
     -4.39114302121487E-15   1.00000000000000E+00   1.00000000000000E+00   0.00000000000000E+00   0.00000000000000E+00
      1.56453571921921E-10   8.55950688055130E-21   1.56453571930480E-10   3.38600135534607E-15   0.00000000000000E+00
      0.00000000000000E+00   0.00000000000000E+00   0.00000000000000E+00  -1.56446161821495E-10   2.54803277949073E-26
     -1.56446161821495E-10   2.05454839830577E-15
      1.24202828800000E-02
     -9.68949292800000E-01  -9.68949292800000E-01   0.00000000000000E+00   0.00000000000000E+00   1.61673821719994E-36
     -1.61673821719994E-36   0.00000000000000E+00  -1.04313060405140E-15   0.00000000000000E+00   0.00000000000000E+00
      0.00000000000000E+00   0.00000000000000E+00  -2.67683089288402E-21  -7.40346298700207E-15  -7.40346566383296E-15
     -4.39136796871149E-15   1.00000000000000E+00   1.00000000000000E+00   0.00000000000000E+00   0.00000000000000E+00
      1.76022265575858E-10   8.55951096164622E-21   1.76022265584418E-10   3.38320004597839E-15   0.00000000000000E+00
      0.00000000000000E+00   0.00000000000000E+00   0.00000000000000E+00  -1.76014862118754E-10   3.02072228987682E-26
     -1.76014862118754E-10   2.05129852678450E-15
      1.69568420864000E-02
     -9.57607894784000E-01  -9.57607894784000E-01   0.00000000000000E+00   0.00000000000000E+00   1.65669029857314E-36
     -1.65669029857314E-36   0.00000000000000E+00  -1.03509328085354E-15   0.00000000000000E+00   0.00000000000000E+00
      0.00000000000000E+00   0.00000000000000E+00  -1.49990541904945E-21  -7.39480763172493E-15  -7.39480913163035E-15
     -4.39165520337188E-15   1.00000000000000E+00   1.00000000000000E+00   0.00000000000000E+00   0.00000000000000E+00
      2.04743974522959E-10   8.55951607332107E-21   2.04743974531519E-10   3.37961266981126E-15   0.00000000000000E+00
      0.00000000000000E+00   0.00000000000000E+00   0.00000000000000E+00  -2.04736579722387E-10   3.19510617308559E-26
     -2.04736579722387E-10   2.04713581441416E-15
      2.27636378705920E-02
     -9.43090905323520E-01  -9.43090905323520E-01   0.00000000000000E+00   0.00000000000000E+00   1.61234688406690E-36
     -1.61234688406690E-36   0.00000000000000E+00  -1.02479918573262E-15   0.00000000000000E+00   0.00000000000000E+00
      0.00000000000000E+00   0.00000000000000E+00  -1.36557541197021E-20  -7.38343779471965E-15  -7.38345145047377E-15
     -4.39202173124009E-15   1.00000000000000E+00   1.00000000000000E+00   0.00000000000000E+00   0.00000000000000E+00
      2.48560804227504E-10   8.55952117920185E-21   2.48560804236063E-10   3.37501805865543E-15   0.00000000000000E+00
      0.00000000000000E+00   0.00000000000000E+00   0.00000000000000E+00  -2.48553420784613E-10   4.21872706903436E-26
     -2.48553420784613E-10   2.04180285831727E-15
      3.01963364743578E-02
     -9.24509158814106E-01  -9.24509158814106E-01   0.00000000000000E+00   0.00000000000000E+00   1.65770176431520E-36
     -1.65770176431520E-36   0.00000000000000E+00  -1.01161245580071E-15   0.00000000000000E+00   0.00000000000000E+00
      0.00000000000000E+00   0.00000000000000E+00  -1.18139667129288E-19  -7.36829296577800E-15  -7.36841110544513E-15
     -4.39248905542087E-15   1.00000000000000E+00   1.00000000000000E+00   0.00000000000000E+00   0.00000000000000E+00
      3.18818457052937E-10   8.55950798796851E-21   3.18818457061496E-10   3.36913245118955E-15   0.00000000000000E+00
      0.00000000000000E+00   0.00000000000000E+00   0.00000000000000E+00  -3.18811088650391E-10  -3.66527045208963E-26
     -3.18811088650391E-10   2.03496906003204E-15
      3.97101906871779E-02
     -9.00724523282055E-01  -9.00724523282055E-01   0.00000000000000E+00   0.00000000000000E+00   1.64666993707847E-36
     -1.64666993707847E-36   0.00000000000000E+00  -9.94716724578095E-16   0.00000000000000E+00   0.00000000000000E+00
      0.00000000000000E+00   0.00000000000000E+00  -1.17092268189029E-18  -7.34771831008967E-15  -7.34888923277156E-15
     -4.39308428107232E-15   1.00000000000000E+00   1.00000000000000E+00   0.00000000000000E+00   0.00000000000000E+00
      4.38974264148775E-10   8.55923336574278E-21   4.38974264157334E-10   3.36159155858286E-15   0.00000000000000E+00
      0.00000000000000E+00   0.00000000000000E+00   0.00000000000000E+00  -4.38966915268102E-10  -6.32170943675074E-27
     -4.38966915268102E-10   2.02620944706757E-15
      5.18879240795878E-02
     -8.70280189801031E-01  -8.70280189801031E-01   0.00000000000000E+00   0.00000000000000E+00   1.65016944904442E-36
     -1.65016944904442E-36   0.00000000000000E+00  -9.73063077269064E-16   0.00000000000000E+00   0.00000000000000E+00
      0.00000000000000E+00   0.00000000000000E+00  -1.37133528876041E-17  -7.31916532317142E-15  -7.33287867605902E-15
     -4.39384145047119E-15   1.00000000000000E+00   1.00000000000000E+00   0.00000000000000E+00   0.00000000000000E+00
      6.62308386227107E-10   8.55686004423222E-21   6.62308386235664E-10   3.35192736331226E-15   0.00000000000000E+00
      0.00000000000000E+00   0.00000000000000E+00   0.00000000000000E+00  -6.62301053356992E-10  -3.55373778169300E-27
     -6.62301053356992E-10   2.01497716442800E-15
      6.74754228218723E-02
     -8.31311442945319E-01  -8.31311442945319E-01   0.00000000000000E+00   0.00000000000000E+00   1.63153436014957E-36
     -1.63153436014957E-36   0.00000000000000E+00  -9.45302527226973E-16   0.00000000000000E+00   0.00000000000000E+00
      0.00000000000000E+00   0.00000000000000E+00   1.25065726725004E-23  -7.27964048580471E-15  -7.27964047329814E-15
     -4.39480315133177E-15   1.00000000000000E+00   1.00000000000000E+00   0.00000000000000E+00   0.00000000000000E+00
      1.12292152346604E-09   8.55957479735896E-21   1.12292152347460E-09   3.33953803054541E-15   0.00000000000000E+00
      0.00000000000000E+00   0.00000000000000E+00   0.00000000000000E+00  -1.12291424383413E-09   3.43954775108179E-26
     -1.12291424383413E-09   2.00056764801333E-15
      8.71156712371509E-02
     -7.82210821907123E-01  -7.82210821907123E-01   0.00000000000000E+00   0.00000000000000E+00   1.66598412786443E-36
     -1.66598412786443E-36   0.00000000000000E+00  -9.10255046509339E-16   0.00000000000000E+00   0.00000000000000E+00
      0.00000000000000E+00   0.00000000000000E+00  -8.68075065217597E-22  -7.22960650829801E-15  -7.22960737637308E-15
     -4.39600354494037E-15   1.00000000000000E+00   1.00000000000000E+00   0.00000000000000E+00   0.00000000000000E+00
      2.18910683165729E-09   8.55959773395291E-21   2.18910683166585E-09   3.32389729293415E-15   0.00000000000000E+00
      0.00000000000000E+00   0.00000000000000E+00   0.00000000000000E+00  -2.18909960205848E-09  -2.76422765246061E-26
     -2.18909960205848E-09   1.98236129851557E-15
      1.00000000000000E-01
     -7.50000000000000E-01  -7.50000000000000E-01   0.00000000000000E+00   0.00000000000000E+00   1.73240466209167E-36
     -1.73240466209167E-36   0.00000000000000E+00  -8.87221908571369E-16   0.00000000000000E+00   0.00000000000000E+00
      0.00000000000000E+00   0.00000000000000E+00  -4.34318793809083E-16  -7.19954767076504E-15  -7.63386646457412E-15
     -4.39678459832222E-15   1.00000000000000E+00   1.00000000000000E+00   0.00000000000000E+00   0.00000000000000E+00
      3.39939073585526E-09   8.55937708750820E-21   3.39939073586382E-09   3.31361865811966E-15   0.00000000000000E+00
      0.00000000000000E+00   0.00000000000000E+00   0.00000000000000E+00  -3.39938310199735E-09  -3.76777650687046E-26
     -3.39938310199735E-09   1.97038784877393E-15
      1.24746713003251E-01
     -6.88133217491873E-01  -6.88133217491873E-01   0.00000000000000E+00   0.00000000000000E+00   1.67759671851119E-36
     -1.67759671851119E-36   0.00000000000000E+00  -8.42891472368627E-16   0.00000000000000E+00   0.00000000000000E+00
      0.00000000000000E+00   0.00000000000000E+00   1.07073573990318E-20  -7.15110421181015E-15  -7.15109350445275E-15
     -4.39827206006765E-15   1.00000000000000E+00   1.00000000000000E+00   0.00000000000000E+00   0.00000000000000E+00
      7.92331941729241E-09   8.55964234932588E-21   7.92331941730097E-09   3.29383691613989E-15   0.00000000000000E+00
      0.00000000000000E+00   0.00000000000000E+00   0.00000000000000E+00  -7.92331226620749E-09  -6.30299466862570E-26
     -7.92331226620749E-09   1.94732661629638E-15
      1.55927571387347E-01
     -6.10181071531632E-01  -6.10181071531632E-01   0.00000000000000E+00   0.00000000000000E+00   1.65048883494949E-36
     -1.65048883494949E-36   0.00000000000000E+00  -7.86865390168820E-16   0.00000000000000E+00   0.00000000000000E+00
      0.00000000000000E+00   0.00000000000000E+00   3.58833790776236E-19  -7.10818992020543E-15  -7.10783108641465E-15
     -4.40012783277427E-15   1.00000000000000E+00   1.00000000000000E+00   0.00000000000000E+00   0.00000000000000E+00
      2.30242541226089E-08   8.55968054275030E-21   2.30242541226175E-08   3.26883742257356E-15   0.00000000000000E+00
      0.00000000000000E+00   0.00000000000000E+00   0.00000000000000E+00  -2.30242470147865E-08  -4.56830057456576E-26
     -2.30242470147865E-08   1.91815580036954E-15
      1.95215452951309E-01
     -5.11961367621729E-01  -5.11961367621729E-01   0.00000000000000E+00   0.00000000000000E+00   1.61230461018534E-36
     -1.61230461018534E-36   0.00000000000000E+00  -7.15999773081651E-16   0.00000000000000E+00   0.00000000000000E+00
      0.00000000000000E+00   0.00000000000000E+00   1.78877939403960E-17  -7.08028036161709E-15  -7.06239256767669E-15
     -4.40245723246302E-15   1.00000000000000E+00   1.00000000000000E+00   0.00000000000000E+00   0.00000000000000E+00
      8.81342067524426E-08   8.55973660993936E-21   8.81342067524512E-08   3.23721547632215E-15   0.00000000000000E+00
      0.00000000000000E+00   0.00000000000000E+00   0.00000000000000E+00  -8.81341996900591E-08   3.12334552746121E-26
     -8.81341996900591E-08   1.88124152922252E-15
      2.00000000000000E-01
     -5.00000000000000E-01  -5.00000000000000E-01   0.00000000000000E+00   0.00000000000000E+00   1.67733905660740E-36
     -1.67733905660740E-36   0.00000000000000E+00  -7.07348257772991E-16   0.00000000000000E+00   0.00000000000000E+00
      0.00000000000000E+00   0.00000000000000E+00  -6.00823739525307E-16  -7.07820637446838E-15  -7.67903011399369E-15
     -4.40274224746405E-15   1.00000000000000E+00   1.00000000000000E+00   0.00000000000000E+00   0.00000000000000E+00
      1.03732484763599E-07   8.55974507982442E-21   1.03732484763608E-07   3.23335453847716E-15   0.00000000000000E+00
      0.00000000000000E+00   0.00000000000000E+00   0.00000000000000E+00  -1.03732477084578E-07  -3.94275922842930E-26
     -1.03732477084578E-07   1.87673596675990E-15
      2.49502730770591E-01
     -3.76243173073522E-01  -3.76243173073522E-01   0.00000000000000E+00   0.00000000000000E+00   1.60877295637277E-36
     -1.60877295637277E-36   0.00000000000000E+00  -6.17540676961292E-16   0.00000000000000E+00   0.00000000000000E+00
      0.00000000000000E+00   0.00000000000000E+00  -7.10811156712570E-20  -7.06389638578200E-15  -7.06396746689767E-15
     -4.40577009202291E-15   1.00000000000000E+00   1.00000000000000E+00   0.00000000000000E+00   0.00000000000000E+00
      5.50648812065472E-07   8.55987758402278E-21   5.50648812065481E-07   3.19325706483728E-15   0.00000000000000E+00
      0.00000000000000E+00   0.00000000000000E+00   0.00000000000000E+00  -5.50648805001515E-07   2.46399508190840E-26
     -5.50648805001515E-07   1.83005370414692E-15
      3.00000000000000E-01
     -2.50000000000000E-01  -2.50000000000000E-01   0.00000000000000E+00   0.00000000000000E+00   1.61229878255414E-36
     -1.61229878255414E-36   0.00000000000000E+00  -5.25257775718792E-16   0.00000000000000E+00   0.00000000000000E+00
      0.00000000000000E+00   0.00000000000000E+00   2.85343105165123E-20  -7.05702410105950E-15  -7.05699556674898E-15
     -4.40929269441716E-15   1.00000000000000E+00   1.00000000000000E+00   0.00000000000000E+00   0.00000000000000E+00
      2.81954692923535E-06   8.56031126033134E-21   2.81954692923536E-06   3.15194833948666E-15   0.00000000000000E+00
      0.00000000000000E+00   0.00000000000000E+00   0.00000000000000E+00  -2.81954692217837E-06  -1.50854585472578E-26
     -2.81954692217837E-06   1.78260213064930E-15
      3.61383386155533E-01
     -9.65415346111672E-02  -9.65415346111672E-02   0.00000000000000E+00   0.00000000000000E+00   1.61285887275655E-36
     -1.61285887275655E-36   0.00000000000000E+00  -4.11642556186018E-16   0.00000000000000E+00   0.00000000000000E+00
      0.00000000000000E+00   0.00000000000000E+00  -1.39447644288504E-16  -7.06351778527200E-15  -7.20296542956051E-15
     -4.41545830080121E-15   1.00000000000000E+00   1.00000000000000E+00   0.00000000000000E+00   0.00000000000000E+00
      1.60804831128574E-05   8.56257119083180E-21   1.60804831128574E-05   3.10059140696197E-15   0.00000000000000E+00
      0.00000000000000E+00   0.00000000000000E+00   0.00000000000000E+00  -1.60804831056545E-05  -1.51446494645289E-25
     -1.60804831056545E-05   1.72650945002525E-15
      4.00000000000000E-01
      0.00000000000000E+00   0.00000000000000E+00   0.00000000000000E+00   0.00000000000000E+00   1.59224409859768E-36
     -1.59224409859768E-36   0.00000000000000E+00  -3.38978265871187E-16   0.00000000000000E+00   0.00000000000000E+00
      0.00000000000000E+00   0.00000000000000E+00  -1.50809302413085E-18  -7.08244167648418E-15  -7.08394976950831E-15
     -4.42137095070392E-15   1.00000000000000E+00   1.00000000000000E+00   0.00000000000000E+00   0.00000000000000E+00
      3.79729470553548E-05   8.56623028402715E-21   3.79729470553548E-05   3.06716764904670E-15   0.00000000000000E+00
      0.00000000000000E+00   0.00000000000000E+00   0.00000000000000E+00  -3.79729470482709E-05  -2.91886871410372E-25
     -3.79729470482709E-05   1.69318156752840E-15
      4.76115398832861E-01
      1.90288497082153E-01   1.90288497082153E-01   0.00000000000000E+00   0.00000000000000E+00   1.67044093692045E-36
     -1.67044093692045E-36   0.00000000000000E+00  -1.93030504332111E-16   0.00000000000000E+00   0.00000000000000E+00
      0.00000000000000E+00   0.00000000000000E+00  -6.09089169408799E-13  -7.14926396113002E-15  -6.16238433369929E-13
     -4.43821035004671E-15   1.00000000000000E+00   1.00000000000000E+00   0.00000000000000E+00   0.00000000000000E+00
      1.19560173079438E-04   8.57980953898771E-21   1.19560173079438E-04   2.99840703842767E-15   0.00000000000000E+00
      0.00000000000000E+00   0.00000000000000E+00   0.00000000000000E+00  -1.19560172463199E-04  -1.52620708640164E-24
     -1.19560172463199E-04   1.63283381595114E-15
      5.00000000000000E-01
      2.50000000000000E-01   2.50000000000000E-01   0.00000000000000E+00   0.00000000000000E+00   1.67612274577204E-36
     -1.67612274577204E-36   0.00000000000000E+00  -1.46683849662794E-16   0.00000000000000E+00   0.00000000000000E+00
      0.00000000000000E+00   0.00000000000000E+00   6.47684732367943E-16  -7.17346216313216E-15  -6.52577743076422E-15
     -4.44460483880908E-15   1.00000000000000E+00   1.00000000000000E+00   0.00000000000000E+00   0.00000000000000E+00
      1.53633106402768E-04   8.58548181681521E-21   1.53633106402768E-04   2.97618959730972E-15   0.00000000000000E+00
      0.00000000000000E+00   0.00000000000000E+00   0.00000000000000E+00  -1.53633106396243E-04  -1.42842772458506E-24
     -1.53633106396243E-04   1.61509909116215E-15
      5.94383094552748E-01
      4.85957736381869E-01   4.85957736381869E-01   0.00000000000000E+00   0.00000000000000E+00   1.60983111987850E-36
     -1.60983111987850E-36   0.00000000000000E+00   3.77010950648514E-17   0.00000000000000E+00   0.00000000000000E+00
      0.00000000000000E+00   0.00000000000000E+00  -1.86178462025768E-17  -7.26245496581857E-15  -7.28107281202115E-15
     -4.47298566716994E-15   1.00000000000000E+00   1.00000000000000E+00   0.00000000000000E+00   0.00000000000000E+00
      3.11482109873659E-04   8.61182032016539E-21   3.11482109873659E-04   2.88655516946996E-15   0.00000000000000E+00
      0.00000000000000E+00   0.00000000000000E+00   0.00000000000000E+00  -3.11482109866378E-04  -2.69728122517696E-24
     -3.11482109866378E-04   1.54872940263513E-15
      6.00000000000000E-01
      5.00000000000000E-01   5.00000000000000E-01   0.00000000000000E+00   0.00000000000000E+00  -8.44417545129420E-34
      8.44417545129420E-34   0.00000000000000E+00   4.87039069872457E-17   0.00000000000000E+00   0.00000000000000E+00
      0.00000000000000E+00   0.00000000000000E+00  -7.56874659925290E-13  -7.26715351079069E-15  -7.64141813436081E-13
     -4.47478564419691E-15   1.00000000000000E+00   1.00000000000000E+00   0.00000000000000E+00   0.00000000000000E+00
      3.21665210152778E-04   8.61352182258476E-21   3.21665210152778E-04   2.88115736835356E-15   0.00000000000000E+00
      0.00000000000000E+00   0.00000000000000E+00   0.00000000000000E+00  -3.21665209388636E-04  -3.97100681631802E-24
     -3.21665209388636E-04   1.54492436885609E-15
      6.50000000000000E-01
      6.25000000000000E-01   6.25000000000000E-01   0.00000000000000E+00   0.00000000000000E+00   2.52922513605406E-36
     -2.52922513605406E-36   0.00000000000000E+00   1.46638794698908E-16   0.00000000000000E+00   0.00000000000000E+00
      0.00000000000000E+00   0.00000000000000E+00   4.98238693694812E-18  -7.30576479485280E-15  -7.30078240791585E-15
     -4.49117204717173E-15   1.00000000000000E+00   1.00000000000000E+00   0.00000000000000E+00   0.00000000000000E+00
      4.14629825246759E-04   8.62909509675896E-21   4.14629825246759E-04   2.83293431313846E-15   0.00000000000000E+00
      0.00000000000000E+00   0.00000000000000E+00   0.00000000000000E+00  -4.14629825239458E-04  -3.56878576487964E-24
     -4.14629825239458E-04   1.51159893933435E-15
      7.00000000000000E-01
      7.50000000000000E-01   7.50000000000000E-01   0.00000000000000E+00   0.00000000000000E+00   2.40412259042597E-33
     -2.40412259042597E-33   0.00000000000000E+00   2.44403404989788E-16   0.00000000000000E+00   0.00000000000000E+00
      0.00000000000000E+00   0.00000000000000E+00   8.00576312479626E-16  -7.33908630958759E-15  -6.53850999710796E-15
     -4.50805866247408E-15   1.00000000000000E+00   1.00000000000000E+00   0.00000000000000E+00   0.00000000000000E+00
      5.10396668348574E-04   8.64517893934391E-21   5.10396668348574E-04   2.78454135308089E-15   0.00000000000000E+00
      0.00000000000000E+00   0.00000000000000E+00   0.00000000000000E+00  -5.10396668342036E-04  -4.50179075196786E-24
     -5.10396668342036E-04   1.47911390440340E-15
      7.62000000000000E-01
      9.05000000000000E-01   9.05000000000000E-01   0.00000000000000E+00   0.00000000000000E+00   1.72252982402460E-36
     -1.72252982402460E-36   0.00000000000000E+00   3.65111603857142E-16   0.00000000000000E+00   0.00000000000000E+00
      0.00000000000000E+00   0.00000000000000E+00   3.00851548820340E-18  -7.37439561343269E-15  -7.37138709794448E-15
     -4.52945328402251E-15   1.00000000000000E+00   1.00000000000000E+00   0.00000000000000E+00   0.00000000000000E+00
      6.30860241705198E-04   8.66547976832015E-21   6.30860241705198E-04   2.72456615108051E-15   0.00000000000000E+00
      0.00000000000000E+00   0.00000000000000E+00   0.00000000000000E+00  -6.30860241697827E-04  -5.48243953269000E-24
     -6.30860241697827E-04   1.43977552908486E-15
      8.00000000000000E-01
      1.00000000000000E+00   1.00000000000000E+00   0.00000000000000E+00   0.00000000000000E+00   1.22467990472482E-33
     -1.22467990472482E-33   0.00000000000000E+00   4.38695720814551E-16   0.00000000000000E+00   0.00000000000000E+00
      0.00000000000000E+00   0.00000000000000E+00   1.22889152633351E-17  -7.39339389278531E-15  -7.38110497752197E-15
     -4.54273226117482E-15   1.00000000000000E+00   1.00000000000000E+00   0.00000000000000E+00   0.00000000000000E+00
      7.04824203157978E-04   8.67798173018486E-21   7.04824203157978E-04   2.68793841105196E-15   0.00000000000000E+00
      0.00000000000000E+00   0.00000000000000E+00   0.00000000000000E+00  -7.04824203150597E-04  -6.25696667676997E-24
     -7.04824203150597E-04   1.41609812930830E-15
      8.76880000000000E-01
      1.19220000000000E+00   1.19220000000000E+00   0.00000000000000E+00   0.00000000000000E+00   3.25290845154293E-36
     -3.25290845154293E-36   0.00000000000000E+00   5.86406829369983E-16   0.00000000000000E+00   0.00000000000000E+00
      0.00000000000000E+00   0.00000000000000E+00   3.99288614217968E-18  -7.42699986104150E-15  -7.42300697489932E-15
     -4.56983490821975E-15   1.00000000000000E+00   1.00000000000000E+00   0.00000000000000E+00   0.00000000000000E+00
      8.53154733007294E-04   8.70313969497099E-21   8.53154733007294E-04   2.61439491208895E-15   0.00000000000000E+00
      0.00000000000000E+00   0.00000000000000E+00   0.00000000000000E+00  -8.53154732999871E-04  -7.44894364603402E-24
     -8.53154732999871E-04   1.36903316676082E-15
      9.00000000000000E-01
      1.25000000000000E+00   1.25000000000000E+00   0.00000000000000E+00   0.00000000000000E+00   6.16736057132923E-35
     -6.16736057132923E-35   0.00000000000000E+00   6.30487897469270E-16   0.00000000000000E+00   0.00000000000000E+00
      0.00000000000000E+00   0.00000000000000E+00  -1.07805647309627E-18  -7.43603857204547E-15  -7.43711662851857E-15
     -4.57802660720235E-15   1.00000000000000E+00   1.00000000000000E+00   0.00000000000000E+00   0.00000000000000E+00
      8.97158483265526E-04   8.71062520151062E-21   8.97158483265526E-04   2.59246702088694E-15   0.00000000000000E+00
      0.00000000000000E+00   0.00000000000000E+00   0.00000000000000E+00  -8.97158483258090E-04  -7.88472310423982E-24
     -8.97158483258090E-04   1.35507168884614E-15
      9.95331200000000E-01
      1.48832800000000E+00   1.48832800000000E+00   0.00000000000000E+00   0.00000000000000E+00   4.48924034250687E-36
     -4.48924034250687E-36   0.00000000000000E+00   8.10418844690906E-16   0.00000000000000E+00   0.00000000000000E+00
      0.00000000000000E+00   0.00000000000000E+00  -5.45853939233315E-18  -7.46911716060002E-15  -7.47457569999236E-15
     -4.61191159764713E-15   1.00000000000000E+00   1.00000000000000E+00   0.00000000000000E+00   0.00000000000000E+00
      1.07416011145554E-03   8.74083812571572E-21   1.07416011145554E-03   2.50319531463596E-15   0.00000000000000E+00
      0.00000000000000E+00   0.00000000000000E+00   0.00000000000000E+00  -1.07416011144807E-03  -9.45789660155640E-24
     -1.07416011144807E-03   1.29829743832027E-15
      1.00000000000000E+00
      1.50000000000000E+00   1.50000000000000E+00   0.00000000000000E+00   0.00000000000000E+00   1.01723055650139E-29
     -1.01723055650139E-29   0.00000000000000E+00   8.19152476084662E-16   0.00000000000000E+00   0.00000000000000E+00
      0.00000000000000E+00   0.00000000000000E+00  -4.61479685015531E-15  -7.47058399727135E-15  -1.20853808474267E-14
     -4.61357402664359E-15   1.00000000000000E+00   1.00000000000000E+00   0.00000000000000E+00   0.00000000000000E+00
      1.08260997675201E-03   8.74227739392657E-21   1.08260997675201E-03   2.49887492065404E-15   0.00000000000000E+00
      0.00000000000000E+00   0.00000000000000E+00   0.00000000000000E+00  -1.08260997673993E-03  -9.57870470594201E-24
     -1.08260997673993E-03   1.29554662990489E-15
}
