DF-ISE text

Info {
  version   = 1.0
  type      = xyplot
  datasets  = [
    "time"
    "gate OuterVoltage" "gate InnerVoltage" "gate QuasiFermiPotential" "gate DisplacementCurrent" "gate eCurrent"
    "gate hCurrent" "gate TotalCurrent" "gate Charge" "substrate OuterVoltage" "substrate InnerVoltage"
    "substrate QuasiFermiPotential" "substrate DisplacementCurrent" "substrate eCurrent" "substrate hCurrent" "substrate TotalCurrent"
    "substrate Charge" "drain OuterVoltage" "drain InnerVoltage" "drain QuasiFermiPotential" "drain DisplacementCurrent"
    "drain eCurrent" "drain hCurrent" "drain TotalCurrent" "drain Charge" "source OuterVoltage"
    "source InnerVoltage" "source QuasiFermiPotential" "source DisplacementCurrent" "source eCurrent" "source hCurrent"
    "source TotalCurrent" "source Charge" ]
  functions = [
    Time
    OuterVoltage InnerVoltage QuasiFermiPotential DisplacementCurrent eCurrent
    hCurrent TotalCurrent Charge OuterVoltage InnerVoltage
    QuasiFermiPotential DisplacementCurrent eCurrent hCurrent TotalCurrent
    Charge OuterVoltage InnerVoltage QuasiFermiPotential DisplacementCurrent
    eCurrent hCurrent TotalCurrent Charge OuterVoltage
    InnerVoltage QuasiFermiPotential DisplacementCurrent eCurrent hCurrent
    TotalCurrent Charge ]
}

Data {
      0.00000000000000E+00
     -1.00000000000000E+00  -1.00000000000000E+00   0.00000000000000E+00   0.00000000000000E+00   1.65125227345080E-36
     -1.65125227345080E-36   0.00000000000000E+00  -1.29897470201000E-15   0.00000000000000E+00   0.00000000000000E+00
      0.00000000000000E+00   0.00000000000000E+00   3.82061961447916E-19  -1.07943969638057E-15  -1.07905763441912E-15
     -2.34812117436695E-15   1.00000000000000E+00   1.00000000000000E+00   0.00000000000000E+00   0.00000000000000E+00
      3.92150616937568E-05   8.15336591111627E-21   3.92150616937568E-05   2.33224112336644E-15   0.00000000000000E+00
      0.00000000000000E+00   0.00000000000000E+00   0.00000000000000E+00  -3.92150616926778E-05  -2.47771499549290E-25
     -3.92150616926778E-05   1.31485475301050E-15
      1.00000000000000E-03
     -9.97500000000000E-01  -9.97500000000000E-01   0.00000000000000E+00   0.00000000000000E+00   1.64473684267143E-36
     -1.64473684267143E-36   0.00000000000000E+00  -1.29694622134208E-15   0.00000000000000E+00   0.00000000000000E+00
      0.00000000000000E+00   0.00000000000000E+00  -3.09007784436699E-18  -1.07943191874953E-15  -1.08252199659390E-15
     -2.34818657164017E-15   1.00000000000000E+00   1.00000000000000E+00   0.00000000000000E+00   0.00000000000000E+00
      3.95768504403152E-05   8.15340751260255E-21   3.95768504403152E-05   2.33125812838127E-15   0.00000000000000E+00
      0.00000000000000E+00   0.00000000000000E+00   0.00000000000000E+00  -3.95768504392327E-05  -2.49478838409409E-25
     -3.95768504392327E-05   1.31387466460099E-15
      2.28000000000000E-03
     -9.94300000000000E-01  -9.94300000000000E-01   0.00000000000000E+00   0.00000000000000E+00   6.37879765188106E-36
     -6.37879765188106E-36   0.00000000000000E+00  -1.29434960885744E-15   0.00000000000000E+00   0.00000000000000E+00
      0.00000000000000E+00   0.00000000000000E+00   3.66689669037782E-13  -1.07942339904073E-15   3.65610245638741E-13
     -2.34827082269738E-15   1.00000000000000E+00   1.00000000000000E+00   0.00000000000000E+00   0.00000000000000E+00
      4.00441873157474E-05   8.15345987215438E-21   4.00441873157474E-05   2.32999990685914E-15   0.00000000000000E+00
      0.00000000000000E+00   0.00000000000000E+00   0.00000000000000E+00  -4.00441876813578E-05  -2.87310447935143E-25
     -4.00441876813578E-05   1.31262052469568E-15
      3.94400000000000E-03
     -9.90140000000000E-01  -9.90140000000000E-01   0.00000000000000E+00   0.00000000000000E+00   1.50477045636188E-35
     -1.50477045636188E-35   0.00000000000000E+00  -1.29097374708181E-15   0.00000000000000E+00   0.00000000000000E+00
      0.00000000000000E+00   0.00000000000000E+00   1.05101593526572E-12  -1.07941471920378E-15   1.04993652054651E-12
     -2.34838126613629E-15   1.00000000000000E+00   1.00000000000000E+00   0.00000000000000E+00   0.00000000000000E+00
      4.06589112366639E-05   8.15352809472488E-21   4.06589112366640E-05   2.32836423900145E-15   0.00000000000000E+00
      0.00000000000000E+00   0.00000000000000E+00   0.00000000000000E+00  -4.06589122866006E-05  -3.53225468706587E-25
     -4.06589122866006E-05   1.31099077421664E-15
      6.10720000000000E-03
     -9.84732000000000E-01  -9.84732000000000E-01   0.00000000000000E+00   0.00000000000000E+00   1.59583553090981E-36
     -1.59583553090981E-36   0.00000000000000E+00  -1.28658467441586E-15   0.00000000000000E+00   0.00000000000000E+00
      0.00000000000000E+00   0.00000000000000E+00   2.28996082846225E-19  -1.07940744900720E-15  -1.07917845292436E-15
     -2.34852640642854E-15   1.00000000000000E+00   1.00000000000000E+00   0.00000000000000E+00   0.00000000000000E+00
      4.14703214619399E-05   8.15362511672491E-21   4.14703214619399E-05   2.32623790451976E-15   0.00000000000000E+00
      0.00000000000000E+00   0.00000000000000E+00   0.00000000000000E+00  -4.14703214608609E-05  -2.61255417305072E-25
     -4.14703214608609E-05   1.30887317632461E-15
      8.87609600000000E-03
     -9.77809760000000E-01  -9.77809760000000E-01   0.00000000000000E+00   0.00000000000000E+00   1.61899016325807E-36
     -1.61899016325807E-36   0.00000000000000E+00  -1.28096590749032E-15   0.00000000000000E+00   0.00000000000000E+00
      0.00000000000000E+00   0.00000000000000E+00   2.69536622246913E-19  -1.07940467602498E-15  -1.07913513940273E-15
     -2.34871479552905E-15   1.00000000000000E+00   1.00000000000000E+00   0.00000000000000E+00   0.00000000000000E+00
      4.25294314576830E-05   8.15374674793345E-21   4.25294314576831E-05   2.32351625141567E-15   0.00000000000000E+00
      0.00000000000000E+00   0.00000000000000E+00   0.00000000000000E+00  -4.25294314566040E-05  -2.68275887117821E-25
     -4.25294314566040E-05   1.30616445160369E-15
      1.24202828800000E-02
     -9.68949292800000E-01  -9.68949292800000E-01   0.00000000000000E+00   0.00000000000000E+00   1.63107673489607E-36
     -1.63107673489607E-36   0.00000000000000E+00  -1.27377263403637E-15   0.00000000000000E+00   0.00000000000000E+00
      0.00000000000000E+00   0.00000000000000E+00  -4.88606423901505E-19  -1.07941161797951E-15  -1.07990022440342E-15
     -2.34896027267310E-15   1.00000000000000E+00   1.00000000000000E+00   0.00000000000000E+00   0.00000000000000E+00
      4.39192563706720E-05   8.15390627301306E-21   4.39192563706720E-05   2.32003262423560E-15   0.00000000000000E+00
      0.00000000000000E+00   0.00000000000000E+00   0.00000000000000E+00  -4.39192563695922E-05  -2.76607757374179E-25
     -4.39192563695922E-05   1.30270028247387E-15
      1.69568420864000E-02
     -9.57607894784000E-01  -9.57607894784000E-01   0.00000000000000E+00   0.00000000000000E+00   1.65634427088611E-36
     -1.65634427088611E-36   0.00000000000000E+00  -1.26456315756661E-15   0.00000000000000E+00   0.00000000000000E+00
      0.00000000000000E+00   0.00000000000000E+00  -1.27953092606452E-17  -1.07943718127095E-15  -1.09223249053160E-15
     -2.34928172729297E-15   1.00000000000000E+00   1.00000000000000E+00   0.00000000000000E+00   0.00000000000000E+00
      4.57554126591174E-05   8.15411688756588E-21   4.57554126591174E-05   2.31557372376742E-15   0.00000000000000E+00
      0.00000000000000E+00   0.00000000000000E+00   0.00000000000000E+00  -4.57554126580252E-05  -2.88880120482574E-25
     -4.57554126580252E-05   1.29827116109216E-15
      2.27636378705920E-02
     -9.43090905323520E-01  -9.43090905323520E-01   0.00000000000000E+00   0.00000000000000E+00   1.65972540391946E-36
     -1.65972540391946E-36   0.00000000000000E+00  -1.25277153267703E-15   0.00000000000000E+00   0.00000000000000E+00
      0.00000000000000E+00   0.00000000000000E+00  -9.84399557212623E-17  -1.07949601391394E-15  -1.17793596963520E-15
     -2.34970534303394E-15   1.00000000000000E+00   1.00000000000000E+00   0.00000000000000E+00   0.00000000000000E+00
      4.82019392638617E-05   8.15439728555955E-21   4.82019392638617E-05   2.30986655694995E-15   0.00000000000000E+00
      0.00000000000000E+00   0.00000000000000E+00   0.00000000000000E+00  -4.82019392626839E-05  -3.03413597105113E-25
     -4.82019392626839E-05   1.29261031876100E-15
      3.01963364743578E-02
     -9.24509158814106E-01  -9.24509158814106E-01   0.00000000000000E+00   0.00000000000000E+00   1.62899761740835E-36
     -1.62899761740835E-36   0.00000000000000E+00  -1.23767236171989E-15   0.00000000000000E+00   0.00000000000000E+00
      0.00000000000000E+00   0.00000000000000E+00  -7.90134743862679E-16  -1.07961130996222E-15  -1.86974605382490E-15
     -2.35026808964186E-15   1.00000000000000E+00   1.00000000000000E+00   0.00000000000000E+00   0.00000000000000E+00
      5.14966347723309E-05   8.15477452224548E-21   5.14966347723309E-05   2.30256173522155E-15   0.00000000000000E+00
      0.00000000000000E+00   0.00000000000000E+00   0.00000000000000E+00  -5.14966347704613E-05  -3.25369847240282E-25
     -5.14966347704613E-05   1.28537871614021E-15
      3.97101906871779E-02
     -9.00724523282055E-01  -9.00724523282055E-01   0.00000000000000E+00   0.00000000000000E+00   1.61496438548062E-36
     -1.61496438548062E-36   0.00000000000000E+00  -1.21833540790478E-15   0.00000000000000E+00   0.00000000000000E+00
      0.00000000000000E+00   0.00000000000000E+00  -6.55667525380482E-15  -1.07981827891844E-15  -7.63649353272327E-15
     -2.35102331007303E-15   1.00000000000000E+00   1.00000000000000E+00   0.00000000000000E+00   0.00000000000000E+00
      5.59927639767180E-05   8.15528872047741E-21   5.59927639767180E-05   2.29321209637558E-15   0.00000000000000E+00
      0.00000000000000E+00   0.00000000000000E+00   0.00000000000000E+00  -5.59927639690816E-05  -3.57736181437783E-25
     -5.59927639690816E-05   1.27614662160223E-15
      5.18879240795878E-02
     -8.70280189801031E-01  -8.70280189801031E-01   0.00000000000000E+00   0.00000000000000E+00   1.65512312091614E-36
     -1.65512312091614E-36   0.00000000000000E+00  -1.19356690181379E-15   0.00000000000000E+00   0.00000000000000E+00
      0.00000000000000E+00   0.00000000000000E+00  -5.67505926324191E-14  -1.08016800975547E-15  -5.78307606421746E-14
     -2.35204992236472E-15   1.00000000000000E+00   1.00000000000000E+00   0.00000000000000E+00   0.00000000000000E+00
      6.22296327956098E-05   8.15600017764911E-21   6.22296327956098E-05   2.28124532435689E-15   0.00000000000000E+00
      0.00000000000000E+00   0.00000000000000E+00   0.00000000000000E+00  -6.22296327377791E-05  -6.78046721206168E-25
     -6.22296327377791E-05   1.26437149982162E-15
      6.74754228218723E-02
     -8.31311442945319E-01  -8.31311442945319E-01   0.00000000000000E+00   0.00000000000000E+00   1.70202572270840E-36
     -1.70202572270840E-36   0.00000000000000E+00  -1.16183327574805E-15   0.00000000000000E+00   0.00000000000000E+00
      0.00000000000000E+00   0.00000000000000E+00  -5.18902528551019E-13  -1.08073173982981E-15  -5.19983260290849E-13
     -2.35346788899992E-15   1.00000000000000E+00   1.00000000000000E+00   0.00000000000000E+00   0.00000000000000E+00
      7.10546694551972E-05   8.15700493433392E-21   7.10546694551972E-05   2.26592882655192E-15   0.00000000000000E+00
      0.00000000000000E+00   0.00000000000000E+00   0.00000000000000E+00  -7.10546689352141E-05  -2.63201043205525E-25
     -7.10546689352141E-05   1.24937233819605E-15
      8.74274212119966E-02
     -7.81431446970009E-01  -7.81431446970009E-01   0.00000000000000E+00   0.00000000000000E+00   1.93245352716335E-36
     -1.93245352716335E-36   0.00000000000000E+00  -1.12116125432935E-15   0.00000000000000E+00   0.00000000000000E+00
      0.00000000000000E+00   0.00000000000000E+00  -4.95117538146961E-12  -1.08160725746850E-15  -4.95225698872708E-12
     -2.35546530937857E-15   1.00000000000000E+00   1.00000000000000E+00   0.00000000000000E+00   0.00000000000000E+00
      8.38424298635235E-05   8.15845823825894E-21   8.38424298635235E-05   2.24632459736330E-15   0.00000000000000E+00
      0.00000000000000E+00   0.00000000000000E+00   0.00000000000000E+00  -8.38424249112666E-05  -5.71420408894778E-23
     -8.38424249112666E-05   1.23030196634462E-15
      1.00000000000000E-01
     -7.50000000000000E-01  -7.50000000000000E-01   0.00000000000000E+00   0.00000000000000E+00   1.67640696165050E-36
     -1.67640696165050E-36   0.00000000000000E+00  -1.09549909012245E-15   0.00000000000000E+00   0.00000000000000E+00
      0.00000000000000E+00   0.00000000000000E+00  -6.82363339617750E-13  -1.08223375927136E-15  -6.83445573377021E-13
     -2.35683656334257E-15   1.00000000000000E+00   1.00000000000000E+00   0.00000000000000E+00   0.00000000000000E+00
      9.28296386011104E-05   8.15948012791521E-21   9.28296386011104E-05   2.23397119785561E-15   0.00000000000000E+00
      0.00000000000000E+00   0.00000000000000E+00   0.00000000000000E+00  -9.28296379176649E-05  -2.60910917010695E-24
     -9.28296379176649E-05   1.21836445560939E-15
      1.25538557939359E-01
     -6.86153605151602E-01  -6.86153605151602E-01   0.00000000000000E+00   0.00000000000000E+00   1.64856649851149E-36
     -1.64856649851149E-36   0.00000000000000E+00  -1.04328758620844E-15   0.00000000000000E+00   0.00000000000000E+00
      0.00000000000000E+00   0.00000000000000E+00  -1.59227831351617E-19  -1.08365891058777E-15  -1.08381813841912E-15
     -2.35990193366364E-15   1.00000000000000E+00   1.00000000000000E+00   0.00000000000000E+00   0.00000000000000E+00
      1.13389488759933E-04   8.16181336632218E-21   1.13389488759933E-04   2.20887658614751E-15   0.00000000000000E+00
      0.00000000000000E+00   0.00000000000000E+00   0.00000000000000E+00  -1.13389488758849E-04  -7.14508786983226E-25
     -1.13389488758849E-04   1.19431293372458E-15
      1.57717140942951E-01
     -6.05707147642621E-01  -6.05707147642621E-01   0.00000000000000E+00   0.00000000000000E+00   1.65619062785233E-36
     -1.65619062785233E-36   0.00000000000000E+00  -9.77320312568652E-16   0.00000000000000E+00   0.00000000000000E+00
      0.00000000000000E+00   0.00000000000000E+00  -6.20497207953585E-16  -1.08572458453669E-15  -1.70622179249028E-15
     -2.36435502382550E-15   1.00000000000000E+00   1.00000000000000E+00   0.00000000000000E+00   0.00000000000000E+00
      1.44238670854116E-04   8.16531035132295E-21   1.44238670854116E-04   2.17725131411430E-15   0.00000000000000E+00
      0.00000000000000E+00   0.00000000000000E+00   0.00000000000000E+00  -1.44238670852410E-04  -9.07510120146864E-25
     -1.44238670852410E-04   1.16442402227987E-15
      1.98262155527478E-01
     -5.04344611181305E-01  -5.04344611181305E-01   0.00000000000000E+00   0.00000000000000E+00   1.64954221454599E-36
     -1.64954221454599E-36   0.00000000000000E+00  -8.93887816481861E-16   0.00000000000000E+00   0.00000000000000E+00
      0.00000000000000E+00   0.00000000000000E+00  -3.94823308449560E-14  -1.08870997298982E-15  -4.05710408179458E-14
     -2.37094732253088E-15   1.00000000000000E+00   1.00000000000000E+00   0.00000000000000E+00   0.00000000000000E+00
      1.91183773363027E-04   8.17062847742193E-21   1.91183773363027E-04   2.13738665787509E-15   0.00000000000000E+00
      0.00000000000000E+00   0.00000000000000E+00   0.00000000000000E+00  -1.91183773322456E-04  -1.20733374793335E-24
     -1.91183773322456E-04   1.12744848113766E-15
      2.00000000000000E-01
     -5.00000000000000E-01  -5.00000000000000E-01   0.00000000000000E+00   0.00000000000000E+00   1.60924996445168E-36
     -1.60924996445168E-36   0.00000000000000E+00  -8.90303694861868E-16   0.00000000000000E+00   0.00000000000000E+00
      0.00000000000000E+00   0.00000000000000E+00  -1.81041029578097E-15  -1.08884661500049E-15  -2.89925691078146E-15
     -2.37125435706116E-15   1.00000000000000E+00   1.00000000000000E+00   0.00000000000000E+00   0.00000000000000E+00
      1.93397735141336E-04   8.17087925235240E-21   1.93397735141336E-04   2.13567742413952E-15   0.00000000000000E+00
      0.00000000000000E+00   0.00000000000000E+00   0.00000000000000E+00  -1.93397735138437E-04  -1.22080047983998E-24
     -1.93397735138437E-04   1.12588062778351E-15
      2.51086718376503E-01
     -3.72283204058742E-01  -3.72283204058742E-01   0.00000000000000E+00   0.00000000000000E+00   1.68583419606612E-36
     -1.68583419606612E-36   0.00000000000000E+00  -7.84633550608469E-16   0.00000000000000E+00   0.00000000000000E+00
      0.00000000000000E+00   0.00000000000000E+00  -2.70525795554251E-12  -1.09315888562362E-15  -2.70635111442813E-12
     -2.38121238530625E-15   1.00000000000000E+00   1.00000000000000E+00   0.00000000000000E+00   0.00000000000000E+00
      2.66219995107120E-04   8.17912871877754E-21   2.66219995107120E-04   2.08540916013218E-15   0.00000000000000E+00
      0.00000000000000E+00   0.00000000000000E+00   0.00000000000000E+00  -2.66219992400768E-04  -1.69655613970084E-24
     -2.66219992400768E-04   1.08043677578253E-15
      3.00000000000000E-01
     -2.50000000000000E-01  -2.50000000000000E-01   0.00000000000000E+00   0.00000000000000E+00   1.69026613196153E-36
     -1.69026613196153E-36   0.00000000000000E+00  -6.82945959842762E-16   0.00000000000000E+00   0.00000000000000E+00
      0.00000000000000E+00   0.00000000000000E+00  -1.35747186123558E-12  -1.09766589056219E-15  -1.35856952712614E-12
     -2.39231555637558E-15   1.00000000000000E+00   1.00000000000000E+00   0.00000000000000E+00   0.00000000000000E+00
      3.48061640507007E-04   8.18840726464760E-21   3.48061640507007E-04   2.03725568259563E-15   0.00000000000000E+00
      0.00000000000000E+00   0.00000000000000E+00   0.00000000000000E+00  -3.48061639148437E-04  -2.21526753605314E-24
     -3.48061639148437E-04   1.03800583362273E-15
      3.64369265154394E-01
     -8.90768371140145E-02  -8.90768371140145E-02   0.00000000000000E+00   0.00000000000000E+00   1.65695932189524E-36
     -1.65695932189524E-36   0.00000000000000E+00  -5.48471824559967E-16   0.00000000000000E+00   0.00000000000000E+00
      0.00000000000000E+00   0.00000000000000E+00  -4.49577744046146E-19  -1.10392991928635E-15  -1.10437949703039E-15
     -2.40916725410947E-15   1.00000000000000E+00   1.00000000000000E+00   0.00000000000000E+00   0.00000000000000E+00
      4.72204670369485E-04   8.20250323693805E-21   4.72204670369485E-04   1.97391126490144E-15   0.00000000000000E+00
      0.00000000000000E+00   0.00000000000000E+00   0.00000000000000E+00  -4.72204670368380E-04  -2.99185746298339E-24
     -4.72204670368380E-04   9.83727813767997E-16
      4.00000000000000E-01
      0.00000000000000E+00   0.00000000000000E+00   0.00000000000000E+00   0.00000000000000E+00   1.63227280730967E-36
     -1.63227280730967E-36   0.00000000000000E+00  -4.73816299801885E-16   0.00000000000000E+00   0.00000000000000E+00
      0.00000000000000E+00   0.00000000000000E+00  -6.41266303605706E-15  -1.10745620388103E-15  -7.52011923993809E-15
     -2.41945075895074E-15   1.00000000000000E+00   1.00000000000000E+00   0.00000000000000E+00   0.00000000000000E+00
      5.47582419047284E-04   8.21107667415180E-21   5.47582419047284E-04   1.93889039252902E-15   0.00000000000000E+00
      0.00000000000000E+00   0.00000000000000E+00   0.00000000000000E+00  -5.47582419039766E-04  -3.47319391326366E-24
     -5.47582419039766E-04   9.54376666223601E-16
      4.79817888791449E-01
      1.99544721978622E-01   1.99544721978622E-01   0.00000000000000E+00   0.00000000000000E+00   1.66826798278120E-36
     -1.66826798278120E-36   0.00000000000000E+00  -3.06393035812112E-16   0.00000000000000E+00   0.00000000000000E+00
      0.00000000000000E+00   0.00000000000000E+00   5.43523162583774E-18  -1.11524915521423E-15  -1.10981392358839E-15
     -2.44447984422501E-15   1.00000000000000E+00   1.00000000000000E+00   0.00000000000000E+00   0.00000000000000E+00
      7.29217804121288E-04   8.23178549300619E-21   7.29217804121288E-04   1.86064581190274E-15   0.00000000000000E+00
      0.00000000000000E+00   0.00000000000000E+00   0.00000000000000E+00  -7.29217804120179E-04  -4.63499457222377E-24
     -7.29217804120179E-04   8.90227068134377E-16
      5.00000000000000E-01
      2.50000000000000E-01   2.50000000000000E-01   0.00000000000000E+00   0.00000000000000E+00   1.62442299176112E-36
     -1.62442299176112E-36   0.00000000000000E+00  -2.64081868888195E-16   0.00000000000000E+00   0.00000000000000E+00
      0.00000000000000E+00   0.00000000000000E+00   6.98623024586190E-19  -1.11716657673548E-15  -1.11646795371090E-15
     -2.45117422635953E-15   1.00000000000000E+00   1.00000000000000E+00   0.00000000000000E+00   0.00000000000000E+00
      7.77285229592356E-04   8.23727811715516E-21   7.77285229592356E-04   1.84092521576812E-15   0.00000000000000E+00
      0.00000000000000E+00   0.00000000000000E+00   0.00000000000000E+00  -7.77285229591241E-04  -4.94433067040929E-24
     -7.77285229591241E-04   8.74330879479621E-16
      5.98974182101396E-01
      4.97435455253491E-01   4.97435455253491E-01   0.00000000000000E+00   0.00000000000000E+00   1.65618217262354E-36
     -1.65618217262354E-36   0.00000000000000E+00  -5.72214543817738E-17   0.00000000000000E+00   0.00000000000000E+00
      0.00000000000000E+00   0.00000000000000E+00  -7.07147977917144E-18  -1.12610796184698E-15  -1.13317944162615E-15
     -2.48560274600372E-15   1.00000000000000E+00   1.00000000000000E+00   0.00000000000000E+00   0.00000000000000E+00
      1.02079758819423E-03   8.26518148029296E-21   1.02079758819423E-03   1.74474543648849E-15   0.00000000000000E+00
      0.00000000000000E+00   0.00000000000000E+00   0.00000000000000E+00  -1.02079758819309E-03  -6.51229344918036E-24
     -1.02079758819309E-03   7.98078763897011E-16
      6.00000000000000E-01
      5.00000000000000E-01   5.00000000000000E-01   0.00000000000000E+00   0.00000000000000E+00   1.38870837223066E-36
     -1.38870837223066E-36   0.00000000000000E+00  -5.50854615476814E-17   0.00000000000000E+00   0.00000000000000E+00
      0.00000000000000E+00   0.00000000000000E+00  -6.93879238325195E-16  -1.12619618249832E-15  -1.82007542082351E-15
     -2.48597095216472E-15   1.00000000000000E+00   1.00000000000000E+00   0.00000000000000E+00   0.00000000000000E+00
      1.02336839140611E-03   8.26547679201726E-21   1.02336839140611E-03   1.74375402224006E-15   0.00000000000000E+00
      0.00000000000000E+00   0.00000000000000E+00   0.00000000000000E+00  -1.02336839140429E-03  -6.52868033880755E-24
     -1.02336839140429E-03   7.97302391472329E-16
      7.00000000000000E-01
      7.50000000000000E-01   7.50000000000000E-01   0.00000000000000E+00   0.00000000000000E+00   1.65847038990213E-35
     -1.65847038990213E-35   0.00000000000000E+00   1.51979363154028E-16   0.00000000000000E+00   0.00000000000000E+00
      0.00000000000000E+00   0.00000000000000E+00  -1.09981903591315E-19  -1.13434145017347E-15  -1.13445143207706E-15
     -2.52265306490197E-15   1.00000000000000E+00   1.00000000000000E+00   0.00000000000000E+00   0.00000000000000E+00
      1.27572519360419E-03   8.29453947154799E-21   1.27572519360419E-03   1.64780601950303E-15   0.00000000000000E+00
      0.00000000000000E+00   0.00000000000000E+00   0.00000000000000E+00  -1.27572519360306E-03  -8.16478111158115E-24
     -1.27572519360306E-03   7.22867682244919E-16
      8.00000000000000E-01
      1.00000000000000E+00   1.00000000000000E+00   0.00000000000000E+00   0.00000000000000E+00  -1.08552441303377E-35
      1.08552441303377E-35   0.00000000000000E+00   3.56095725843586E-16   0.00000000000000E+00   0.00000000000000E+00
      0.00000000000000E+00   0.00000000000000E+00   1.10078813472223E-17  -1.14163996305636E-15  -1.13063208170914E-15
     -2.56039390595665E-15   1.00000000000000E+00   1.00000000000000E+00   0.00000000000000E+00   0.00000000000000E+00
      1.52706776020211E-03   8.32362999232462E-21   1.52706776020211E-03   1.55359461176632E-15   0.00000000000000E+00
      0.00000000000000E+00   0.00000000000000E+00   0.00000000000000E+00  -1.52706776020098E-03  -9.80313384333187E-24
     -1.52706776020098E-03   6.50703568346753E-16
      9.00000000000000E-01
      1.25000000000000E+00   1.25000000000000E+00   0.00000000000000E+00   0.00000000000000E+00  -2.89600438197340E-34
      2.89600438197340E-34   0.00000000000000E+00   5.56501563296237E-16   0.00000000000000E+00   0.00000000000000E+00
      0.00000000000000E+00   0.00000000000000E+00  -4.81427794493823E-19  -1.14812453008544E-15  -1.14860595787993E-15
     -2.59864242203232E-15   1.00000000000000E+00   1.00000000000000E+00   0.00000000000000E+00   0.00000000000000E+00
      1.77218675280975E-03   8.35213996869591E-21   1.77218675280975E-03   1.46159633578459E-15   0.00000000000000E+00
      0.00000000000000E+00   0.00000000000000E+00   0.00000000000000E+00  -1.77218675280860E-03  -1.14109394453993E-23
     -1.77218675280860E-03   5.80544522951501E-16
      1.00000000000000E+00
      1.50000000000000E+00   1.50000000000000E+00   0.00000000000000E+00   0.00000000000000E+00   6.48267062418421E-36
     -6.48267062418421E-36   0.00000000000000E+00   7.52739548449076E-16   0.00000000000000E+00   0.00000000000000E+00
      0.00000000000000E+00   0.00000000000000E+00   6.79473824146885E-18  -1.15374925203977E-15  -1.14695451379830E-15
     -2.63704118285713E-15   1.00000000000000E+00   1.00000000000000E+00   0.00000000000000E+00   0.00000000000000E+00
      2.00742456555054E-03   1.49686848733720E-20   2.00742456555054E-03   1.37213259717380E-15   0.00000000000000E+00
      0.00000000000000E+00   0.00000000000000E+00   0.00000000000000E+00  -2.00742456554939E-03  -1.29610496768791E-23
     -2.00742456554939E-03   5.12169037234253E-16
}
