DF-ISE text

Info {
  version   = 1.0
  type      = xyplot
  datasets  = [
    "time"
    "gate OuterVoltage" "gate InnerVoltage" "gate QuasiFermiPotential" "gate DisplacementCurrent" "gate eCurrent"
    "gate hCurrent" "gate TotalCurrent" "gate Charge" "substrate OuterVoltage" "substrate InnerVoltage"
    "substrate QuasiFermiPotential" "substrate DisplacementCurrent" "substrate eCurrent" "substrate hCurrent" "substrate TotalCurrent"
    "substrate Charge" "drain OuterVoltage" "drain InnerVoltage" "drain QuasiFermiPotential" "drain DisplacementCurrent"
    "drain eCurrent" "drain hCurrent" "drain TotalCurrent" "drain Charge" "source OuterVoltage"
    "source InnerVoltage" "source QuasiFermiPotential" "source DisplacementCurrent" "source eCurrent" "source hCurrent"
    "source TotalCurrent" "source Charge" ]
  functions = [
    Time
    OuterVoltage InnerVoltage QuasiFermiPotential DisplacementCurrent eCurrent
    hCurrent TotalCurrent Charge OuterVoltage InnerVoltage
    QuasiFermiPotential DisplacementCurrent eCurrent hCurrent TotalCurrent
    Charge OuterVoltage InnerVoltage QuasiFermiPotential DisplacementCurrent
    eCurrent hCurrent TotalCurrent Charge OuterVoltage
    InnerVoltage QuasiFermiPotential DisplacementCurrent eCurrent hCurrent
    TotalCurrent Charge ]
}

Data {
      0.00000000000000E+00
      1.00000000000000E+00   1.00000000000000E+00   0.00000000000000E+00   0.00000000000000E+00   5.13499896775597E-36
     -5.13499896775597E-36   0.00000000000000E+00   1.14478758287039E-15   0.00000000000000E+00   0.00000000000000E+00
      0.00000000000000E+00   0.00000000000000E+00   8.02896520912376E-15  -1.94280428856363E-19   8.02877092869490E-15
      2.17396024552594E-15  -1.00000000000000E+00  -1.00000000000000E+00   0.00000000000000E+00   0.00000000000000E+00
     -9.32746755001664E-22  -8.02895650951896E-15  -8.02895744226572E-15  -2.07719855469927E-15   0.00000000000000E+00
      0.00000000000000E+00   0.00000000000000E+00   0.00000000000000E+00  -1.79010143694689E-28   1.86513570969876E-19
      1.86513570790866E-19  -1.24154927369705E-15
      1.00000000000000E-03
      9.97500000000000E-01   9.97500000000000E-01   0.00000000000000E+00   0.00000000000000E+00   5.21761844290428E-36
     -5.21761844290428E-36   0.00000000000000E+00   1.13939538165462E-15   0.00000000000000E+00   0.00000000000000E+00
      0.00000000000000E+00   0.00000000000000E+00   8.01977547753329E-15   1.51710192276252E-19   8.01992718772557E-15
      2.17738057747921E-15  -1.00000000000000E+00  -1.00000000000000E+00   0.00000000000000E+00   0.00000000000000E+00
     -9.32768084654859E-22  -8.01997541623746E-15  -8.01997634900555E-15  -2.07620330226967E-15   0.00000000000000E+00
      0.00000000000000E+00   0.00000000000000E+00   0.00000000000000E+00   2.69182361094037E-28   4.91612796754540E-20
      4.91612799446363E-20  -1.24057265686416E-15
      2.28000000000000E-03
      9.94300000000000E-01   9.94300000000000E-01   0.00000000000000E+00   0.00000000000000E+00   5.15512589495953E-36
     -5.15512589495953E-36   0.00000000000000E+00   1.13253000484458E-15   0.00000000000000E+00   0.00000000000000E+00
      0.00000000000000E+00   0.00000000000000E+00   8.00803212392846E-15   1.28643715392574E-19   8.00816076764385E-15
      2.18172113609446E-15  -1.00000000000000E+00  -1.00000000000000E+00   0.00000000000000E+00   0.00000000000000E+00
     -9.32768040441057E-22  -8.00804926312044E-15  -8.00805019588848E-15  -2.07492903883396E-15   0.00000000000000E+00
      0.00000000000000E+00   0.00000000000000E+00   0.00000000000000E+00   5.74818572156756E-29  -1.10571755417180E-19
     -1.10571755359698E-19  -1.23932210210507E-15
      3.91840000000000E-03
      9.90204000000000E-01   9.90204000000000E-01   0.00000000000000E+00   0.00000000000000E+00   5.15023383907664E-36
     -5.15023383907664E-36   0.00000000000000E+00   1.12380164763723E-15   0.00000000000000E+00   0.00000000000000E+00
      0.00000000000000E+00   0.00000000000000E+00   7.99303505339278E-15   1.21614813454757E-19   7.99315666820623E-15
      2.18721638540772E-15  -1.00000000000000E+00  -1.00000000000000E+00   0.00000000000000E+00   0.00000000000000E+00
     -9.32767996675688E-22  -7.99314647894707E-15  -7.99314741171507E-15  -2.07329742938884E-15   0.00000000000000E+00
      0.00000000000000E+00   0.00000000000000E+00   0.00000000000000E+00   1.63345689270762E-29  -9.25649116247299E-21
     -9.25649114613843E-21  -1.23772060365611E-15
      6.01555200000000E-03
      9.84961120000000E-01   9.84961120000000E-01   0.00000000000000E+00   0.00000000000000E+00   5.16163927511214E-36
     -5.16163927511214E-36   0.00000000000000E+00   1.11272502755422E-15   0.00000000000000E+00   0.00000000000000E+00
      0.00000000000000E+00   0.00000000000000E+00   7.97390059803145E-15  -1.41844354711915E-19   7.97375875367674E-15
      2.19415245589978E-15  -1.00000000000000E+00  -1.00000000000000E+00   0.00000000000000E+00   0.00000000000000E+00
     -9.32767932777625E-22  -7.97398414975811E-15  -7.97398508252604E-15  -2.07120807564112E-15   0.00000000000000E+00
      0.00000000000000E+00   0.00000000000000E+00   0.00000000000000E+00  -3.72498144951099E-28   2.26328849674294E-19
      2.26328849301796E-19  -1.23566940781288E-15
      8.69990656000000E-03
      9.78250233600000E-01   9.78250233600000E-01   0.00000000000000E+00   0.00000000000000E+00   5.18441484390559E-36
     -5.18441484390559E-36   0.00000000000000E+00   1.09870042947185E-15   0.00000000000000E+00   0.00000000000000E+00
      0.00000000000000E+00   0.00000000000000E+00   7.94952167067858E-15  -6.60585798280951E-20   7.94945561209875E-15
      2.20287364470426E-15  -1.00000000000000E+00  -1.00000000000000E+00   0.00000000000000E+00   0.00000000000000E+00
     -9.32767845954585E-22  -7.94960530041262E-15  -7.94960623318047E-15  -2.06853226185886E-15   0.00000000000000E+00
      0.00000000000000E+00   0.00000000000000E+00   0.00000000000000E+00   5.15385835986461E-28   1.50621081183772E-19
      1.50621081699158E-19  -1.23304181231726E-15
      1.21358803968000E-02
      9.69660299008000E-01   9.69660299008000E-01   0.00000000000000E+00   0.00000000000000E+00   5.12695110869353E-36
     -5.12695110869353E-36   0.00000000000000E+00   1.08099330741263E-15   0.00000000000000E+00   0.00000000000000E+00
      0.00000000000000E+00   0.00000000000000E+00   7.91852862038342E-15   1.44067241348356E-20   7.91854302710756E-15
      2.21378676670358E-15  -1.00000000000000E+00  -1.00000000000000E+00   0.00000000000000E+00   0.00000000000000E+00
     -9.32767737474734E-22  -7.91869878609251E-15  -7.91869971886025E-15  -2.06510490733873E-15   0.00000000000000E+00
      0.00000000000000E+00   0.00000000000000E+00   0.00000000000000E+00  -9.46934585657636E-28   1.56691753604959E-19
      1.56691752658025E-19  -1.22967516677747E-15
      1.65339269079040E-02
      9.58665182730240E-01   9.58665182730240E-01   0.00000000000000E+00   0.00000000000000E+00   5.18029372263680E-36
     -5.18029372263680E-36   0.00000000000000E+00   1.05871325621413E-15   0.00000000000000E+00   0.00000000000000E+00
      0.00000000000000E+00   0.00000000000000E+00   7.87926410269085E-15  -1.59292024958914E-19   7.87910481066589E-15
      2.22736148534673E-15  -1.00000000000000E+00  -1.00000000000000E+00   0.00000000000000E+00   0.00000000000000E+00
     -9.32767584031529E-22  -7.87937542886448E-15  -7.87937636163207E-15  -2.06071420300602E-15   0.00000000000000E+00
      0.00000000000000E+00   0.00000000000000E+00   0.00000000000000E+00   1.06932134756261E-28   2.71550966067575E-19
      2.71550966174507E-19  -1.22536053855484E-15
      2.21634264421171E-02
      9.44591433894707E-01   9.44591433894707E-01   0.00000000000000E+00   0.00000000000000E+00   5.38138595845552E-36
     -5.38138595845552E-36   0.00000000000000E+00   1.03079288218851E-15   0.00000000000000E+00   0.00000000000000E+00
      0.00000000000000E+00   0.00000000000000E+00   7.82980390754247E-15  -6.83368884551107E-19   7.82912053865792E-15
      2.24412471987066E-15  -1.00000000000000E+00  -1.00000000000000E+00   0.00000000000000E+00   0.00000000000000E+00
     -9.32767364715558E-22  -7.82988892589605E-15  -7.82988985866341E-15  -2.05508825641643E-15   0.00000000000000E+00
      0.00000000000000E+00   0.00000000000000E+00   0.00000000000000E+00   2.50109084806002E-28   7.69320005247891E-19
      7.69320005498000E-19  -1.21982934564273E-15
      2.93691858459099E-02
      9.26577035385225E-01   9.26577035385225E-01   0.00000000000000E+00   0.00000000000000E+00   5.09752110588510E-36
     -5.09752110588510E-36   0.00000000000000E+00   9.95965441029551E-16   0.00000000000000E+00   0.00000000000000E+00
      0.00000000000000E+00   0.00000000000000E+00   7.76809506069096E-15   1.23137281517303E-19   7.76821819797248E-15
      2.26464847811334E-15  -1.00000000000000E+00  -1.00000000000000E+00   0.00000000000000E+00   0.00000000000000E+00
     -9.32767143912078E-22  -7.76825835619264E-15  -7.76825928895978E-15  -2.04787787307146E-15   0.00000000000000E+00
      0.00000000000000E+00   0.00000000000000E+00   0.00000000000000E+00  -1.04019236651017E-28   4.10909874220828E-20
      4.10909873180635E-20  -1.21273604607144E-15
      3.84484426946888E-02
      9.03878893263278E-01   9.03878893263278E-01   0.00000000000000E+00   0.00000000000000E+00   5.07537334525483E-36
     -5.07537334525483E-36   0.00000000000000E+00   9.53400649520060E-16   0.00000000000000E+00   0.00000000000000E+00
      0.00000000000000E+00   0.00000000000000E+00   7.69351045011789E-15   6.16140525219662E-20   7.69357206417041E-15
      2.28915631352387E-15  -1.00000000000000E+00  -1.00000000000000E+00   0.00000000000000E+00   0.00000000000000E+00
     -9.32766813238424E-22  -7.69370344979489E-15  -7.69370438256170E-15  -2.03877889914961E-15   0.00000000000000E+00
      0.00000000000000E+00   0.00000000000000E+00   0.00000000000000E+00   1.81829415773233E-28   1.32318391094483E-19
      1.32318391276313E-19  -1.20377806389432E-15
      4.98883063241503E-02
      8.75279234189624E-01   8.75279234189624E-01   0.00000000000000E+00   0.00000000000000E+00   5.04877899059674E-36
     -5.04877899059674E-36   0.00000000000000E+00   9.01601219436857E-16   0.00000000000000E+00   0.00000000000000E+00
      0.00000000000000E+00   0.00000000000000E+00   7.60573402963545E-15   5.97609828392160E-20   7.60579379061828E-15
      2.31815263716043E-15  -1.00000000000000E+00  -1.00000000000000E+00   0.00000000000000E+00   0.00000000000000E+00
     -9.32766359908289E-22  -7.60582451295445E-15  -7.60582544572081E-15  -2.02729354923636E-15   0.00000000000000E+00
      0.00000000000000E+00   0.00000000000000E+00   0.00000000000000E+00   2.14484225755899E-28   3.16551022989761E-20
      3.16551025134604E-20  -1.19246030736094E-15
      6.43025344972717E-02
      8.39243663756821E-01   8.39243663756821E-01   0.00000000000000E+00   0.00000000000000E+00   5.08292785273530E-36
     -5.08292785273530E-36   0.00000000000000E+00   8.38785500919417E-16   0.00000000000000E+00   0.00000000000000E+00
      0.00000000000000E+00   0.00000000000000E+00   7.50703448150347E-15  -1.01532276765553E-19   7.50693294922671E-15
      2.35216038640078E-15  -1.00000000000000E+00  -1.00000000000000E+00   0.00000000000000E+00   0.00000000000000E+00
     -9.32765765477991E-22  -7.50719909904468E-15  -7.50720003181045E-15  -2.01279170890749E-15   0.00000000000000E+00
      0.00000000000000E+00   0.00000000000000E+00   0.00000000000000E+00   7.75765604229066E-28   2.67082582983590E-19
      2.67082583759355E-19  -1.17815417841271E-15
      8.24644619954047E-02
      7.93838845011488E-01   7.93838845011488E-01   0.00000000000000E+00   0.00000000000000E+00   5.17156420868641E-36
     -5.17156420868641E-36   0.00000000000000E+00   7.62788967670739E-16   0.00000000000000E+00   0.00000000000000E+00
      0.00000000000000E+00   0.00000000000000E+00   7.40386707949522E-15  -2.92751536234065E-19   7.40357432795898E-15
      2.39174718629028E-15  -1.00000000000000E+00  -1.00000000000000E+00   0.00000000000000E+00   0.00000000000000E+00
     -9.32764954399583E-22  -7.40399111259104E-15  -7.40399204535599E-15  -1.99447543908248E-15   0.00000000000000E+00
      0.00000000000000E+00   0.00000000000000E+00   0.00000000000000E+00  -2.73867853096990E-29   4.17717397034160E-19
      4.17717397006774E-19  -1.16006071487855E-15
      1.00000000000000E-01
      7.50000000000000E-01   7.50000000000000E-01   0.00000000000000E+00   0.00000000000000E+00   5.01366318390198E-36
     -5.01366318390198E-36   0.00000000000000E+00   6.92072561822449E-16   0.00000000000000E+00   0.00000000000000E+00
      0.00000000000000E+00   0.00000000000000E+00   7.32565732404125E-15   1.10203477418531E-19   7.32576752751867E-15
      2.42720024487953E-15  -1.00000000000000E+00  -1.00000000000000E+00   0.00000000000000E+00   0.00000000000000E+00
     -9.32764136581020E-22  -7.32622724821450E-15  -7.32622818097864E-15  -1.97674846507049E-15   0.00000000000000E+00
      0.00000000000000E+00   0.00000000000000E+00   0.00000000000000E+00   1.24518272508112E-28   4.60653459840598E-19
      4.60653459965116E-19  -1.14252434163149E-15
      1.22884028647648E-01
      6.92789928380881E-01   6.92789928380881E-01   0.00000000000000E+00   0.00000000000000E+00   5.05347273708249E-36
     -5.05347273708249E-36   0.00000000000000E+00   6.02884691531222E-16   0.00000000000000E+00   0.00000000000000E+00
      0.00000000000000E+00   0.00000000000000E+00   7.24696433757134E-15   1.36326781649601E-19   7.24710066435299E-15
      2.47021975532820E-15  -1.00000000000000E+00  -1.00000000000000E+00   0.00000000000000E+00   0.00000000000000E+00
     -9.32762988594715E-22  -7.24871793446691E-15  -7.24871886722989E-15  -1.95355756019016E-15   0.00000000000000E+00
      0.00000000000000E+00   0.00000000000000E+00   0.00000000000000E+00  -1.23227867072950E-28   1.61820287703865E-18
      1.61820287691542E-18  -1.11954688666926E-15
      1.51260224170731E-01
      6.21849439573174E-01   6.21849439573174E-01   0.00000000000000E+00   0.00000000000000E+00   5.08664020529370E-36
     -5.08664020529370E-36   0.00000000000000E+00   4.96108757839066E-16   0.00000000000000E+00   0.00000000000000E+00
      0.00000000000000E+00   0.00000000000000E+00   7.16968690457604E-15  -2.85820827560494E-19   7.16940108374848E-15
      2.51953048732411E-15  -1.00000000000000E+00  -1.00000000000000E+00   0.00000000000000E+00   0.00000000000000E+00
     -9.32761459514606E-22  -7.17924891378456E-15  -7.17924984654602E-15  -1.92471925817692E-15   0.00000000000000E+00
      0.00000000000000E+00   0.00000000000000E+00   0.00000000000000E+00  -4.56050264897475E-28   9.84876279801463E-18
      9.84876279755858E-18  -1.09091998698626E-15
      1.85311658798430E-01
      5.36720853003925E-01   5.36720853003925E-01   0.00000000000000E+00   0.00000000000000E+00   5.09388683359062E-36
     -5.09388683359062E-36   0.00000000000000E+00   3.72268704407338E-16   0.00000000000000E+00   0.00000000000000E+00
      0.00000000000000E+00   0.00000000000000E+00   7.07315326346092E-15   1.25571195204182E-19   7.07327883465612E-15
      2.57412577654363E-15  -1.00000000000000E+00  -1.00000000000000E+00   0.00000000000000E+00   0.00000000000000E+00
     -9.32759480573079E-22  -7.16660065723362E-15  -7.16660158999310E-15  -1.89000543487753E-15   0.00000000000000E+00
      0.00000000000000E+00   0.00000000000000E+00   0.00000000000000E+00  -7.98351027761563E-29   9.33227553370499E-17
      9.33227553369700E-17  -1.05638904607343E-15
      2.00000000000000E-01
      5.00000000000000E-01   5.00000000000000E-01   0.00000000000000E+00   0.00000000000000E+00   5.04683083470997E-36
     -5.04683083470997E-36   0.00000000000000E+00   3.20020643478246E-16   0.00000000000000E+00   0.00000000000000E+00
      0.00000000000000E+00   0.00000000000000E+00   7.02310008055304E-15  -3.85639737181912E-20   7.02306151657932E-15
      2.59641717057268E-15  -1.00000000000000E+00  -1.00000000000000E+00   0.00000000000000E+00   0.00000000000000E+00
     -9.32758581801434E-22  -7.27891135470877E-15  -7.27891228746735E-15  -1.87499776304829E-15   0.00000000000000E+00
      0.00000000000000E+00   0.00000000000000E+00   0.00000000000000E+00  -2.22985070112449E-28   2.55850770888265E-16
      2.55850770888042E-16  -1.04144005100263E-15
      2.34051434627700E-01
      4.14871413430751E-01   4.14871413430751E-01   0.00000000000000E+00   0.00000000000000E+00   5.04298372234849E-36
     -5.04298372234849E-36   0.00000000000000E+00   2.01139747678022E-16   0.00000000000000E+00   0.00000000000000E+00
      0.00000000000000E+00   0.00000000000000E+00   6.89271769088001E-15   2.25068770069984E-19   6.89294275965008E-15
      2.64567377238781E-15  -1.00000000000000E+00  -1.00000000000000E+00   0.00000000000000E+00   0.00000000000000E+00
     -9.32756394413800E-22  -9.69896715507810E-15  -9.69896808783450E-15  -1.84013340342305E-15   0.00000000000000E+00
      0.00000000000000E+00   0.00000000000000E+00   0.00000000000000E+00  -6.44175727712185E-29   2.80602532818445E-15
      2.80602532818439E-15  -1.00668011664277E-15
      2.74913156180939E-01
      3.12717109547652E-01   3.12717109547652E-01   0.00000000000000E+00   0.00000000000000E+00   4.97812563685704E-36
     -4.97812563685704E-36   0.00000000000000E+00   6.19665794632373E-17   0.00000000000000E+00   0.00000000000000E+00
      0.00000000000000E+00   0.00000000000000E+00   6.69365546489122E-15  -6.25390808787386E-20   6.69359292581034E-15
      2.70103927496408E-15  -1.00000000000000E+00  -1.00000000000000E+00   0.00000000000000E+00   0.00000000000000E+00
     -9.32753586133447E-22  -6.08552490153640E-14  -6.08552499481176E-14  -1.79817029518524E-15   0.00000000000000E+00
      0.00000000000000E+00   0.00000000000000E+00   0.00000000000000E+00  -2.41965233823222E-28   5.41616570223073E-14
      5.41616570223070E-14  -9.64835559242075E-16
      3.00000000000000E-01
      2.50000000000000E-01   2.50000000000000E-01   0.00000000000000E+00   0.00000000000000E+00   5.01939187861717E-36
     -5.01939187861717E-36   0.00000000000000E+00  -2.19041180477527E-17   0.00000000000000E+00   0.00000000000000E+00
      0.00000000000000E+00   0.00000000000000E+00   6.54605201211134E-15   1.27279669193473E-19   6.54617929178053E-15
      2.73337354312254E-15  -1.00000000000000E+00  -1.00000000000000E+00   0.00000000000000E+00   0.00000000000000E+00
     -9.32751772611005E-22  -3.52829022761333E-13  -3.52829023694085E-13  -1.77234302427428E-15   0.00000000000000E+00
      0.00000000000000E+00   0.00000000000000E+00   0.00000000000000E+00   4.00750921898267E-28   3.46282844402304E-13
      3.46282844402305E-13  -9.39126400800512E-16
      3.49034065863887E-01
      1.27414835340282E-01   1.27414835340282E-01   0.00000000000000E+00   0.00000000000000E+00   4.95121492638892E-36
     -4.95121492638892E-36   0.00000000000000E+00  -1.83063861921381E-16   0.00000000000000E+00   0.00000000000000E+00
      0.00000000000000E+00   0.00000000000000E+00   6.37349955452050E-15  -1.07373970762069E-19   6.37339218054974E-15
      2.79385150193542E-15  -1.00000000000000E+00  -1.00000000000000E+00   0.00000000000000E+00   0.00000000000000E+00
     -9.32748042041943E-22  -1.39143462456820E-11  -1.39143462466148E-11  -1.72172677101210E-15   0.00000000000000E+00
      0.00000000000000E+00   0.00000000000000E+00   0.00000000000000E+00  -1.38331904597649E-28   1.39079728544342E-11
      1.39079728544342E-11  -8.89060869001950E-16
      4.00000000000000E-01
      0.00000000000000E+00   0.00000000000000E+00   0.00000000000000E+00   0.00000000000000E+00   5.03467994670196E-36
     -5.03467994670196E-36   0.00000000000000E+00  -3.47849605436675E-16   0.00000000000000E+00   0.00000000000000E+00
      0.00000000000000E+00   0.00000000000000E+00   6.18118469871978E-15   7.45093224590129E-21   6.18119214965202E-15
      2.85470949354048E-15  -1.00000000000000E+00  -1.00000000000000E+00   0.00000000000000E+00   0.00000000000000E+00
     -9.32743991716920E-22  -6.94372034460227E-10  -6.94372034461160E-10  -1.66892958025110E-15   0.00000000000000E+00
      0.00000000000000E+00   0.00000000000000E+00   0.00000000000000E+00   1.89649108012826E-28   6.94365853269009E-10
      6.94365853269009E-10  -8.37930307852692E-16
      4.29910780176971E-01
     -7.47769504424283E-02  -7.47769504424283E-02   0.00000000000000E+00   0.00000000000000E+00   5.00359467075210E-36
     -5.00359467075210E-36   0.00000000000000E+00  -4.44386977744240E-16   0.00000000000000E+00   0.00000000000000E+00
      0.00000000000000E+00   0.00000000000000E+00   6.01727114112179E-15  -2.27611957609806E-19   6.01704352916418E-15
      2.89116752767055E-15  -1.00000000000000E+00  -1.00000000000000E+00   0.00000000000000E+00   0.00000000000000E+00
     -7.36367345619300E-22  -7.03270150592298E-09  -7.03270150592372E-09  -1.63785369163662E-15   0.00000000000000E+00
      0.00000000000000E+00   0.00000000000000E+00   0.00000000000000E+00   3.75879186256304E-28   7.03269548888021E-09
      7.03269548888021E-09  -8.08926858289680E-16
      4.65205500785797E-01
     -1.63013751964494E-01  -1.63013751964494E-01   0.00000000000000E+00   0.00000000000000E+00   5.06649485259288E-36
     -5.06649485259288E-36   0.00000000000000E+00  -5.62952283986962E-16   0.00000000000000E+00   0.00000000000000E+00
      0.00000000000000E+00   0.00000000000000E+00   5.92327430414291E-15  -3.81220833972389E-18   5.91946209580319E-15
      2.94048403871961E-15  -1.00000000000000E+00  -1.00000000000000E+00   0.00000000000000E+00   0.00000000000000E+00
     -3.20313333389947E-21  -1.02784117942770E-07  -1.02784117942773E-07  -1.60110238030411E-15   0.00000000000000E+00
      0.00000000000000E+00   0.00000000000000E+00   0.00000000000000E+00   7.43017110102503E-27   1.02784112023311E-07
      1.02784112023311E-07  -7.76429374428553E-16
      5.00000000000000E-01
     -2.50000000000000E-01  -2.50000000000000E-01   0.00000000000000E+00   0.00000000000000E+00   5.03907925289240E-36
     -5.03907925289240E-36   0.00000000000000E+00  -7.02933129920365E-16   0.00000000000000E+00   0.00000000000000E+00
      0.00000000000000E+00   0.00000000000000E+00   5.87744358474611E-15  -6.05891204660998E-17   5.81685446428001E-15
      3.01440830847359E-15  -1.00000000000000E+00  -1.00000000000000E+00   0.00000000000000E+00   0.00000000000000E+00
     -1.10159188910116E-21  -9.52424788306063E-07  -9.52424788306065E-07  -1.56485827577003E-15   0.00000000000000E+00
      0.00000000000000E+00   0.00000000000000E+00   0.00000000000000E+00   7.13506135408729E-26   9.52424782489214E-07
      9.52424782489214E-07  -7.46616902783186E-16
      5.21882726777472E-01
     -3.04706816943680E-01  -3.04706816943680E-01   0.00000000000000E+00   0.00000000000000E+00   5.13190803099949E-36
     -5.13190803099949E-36   0.00000000000000E+00  -8.09901214153764E-16   0.00000000000000E+00   0.00000000000000E+00
      0.00000000000000E+00   0.00000000000000E+00   5.88314173765813E-15   3.50157905939122E-19   5.88349189556407E-15
      3.08077864135192E-15  -1.00000000000000E+00  -1.00000000000000E+00   0.00000000000000E+00   0.00000000000000E+00
     -9.32944444481123E-22  -2.57026736488009E-06  -2.57026736488009E-06  -1.54214268706913E-15   0.00000000000000E+00
      0.00000000000000E+00   0.00000000000000E+00   0.00000000000000E+00   1.94839371690767E-25   2.57026735899665E-06
      2.57026735899665E-06  -7.28734740129038E-16
      5.48579653445988E-01
     -3.71449133614971E-01  -3.71449133614971E-01   0.00000000000000E+00   0.00000000000000E+00   5.14099402111047E-36
     -5.14099402111047E-36   0.00000000000000E+00  -9.55396817443376E-16   0.00000000000000E+00   0.00000000000000E+00
      0.00000000000000E+00   0.00000000000000E+00   5.91439323509767E-15   1.13938787102394E-15   7.05378110612161E-15
      3.17744950872416E-15  -1.00000000000000E+00  -1.00000000000000E+00   0.00000000000000E+00   0.00000000000000E+00
     -9.33232537342644E-22  -6.11241419310995E-06  -6.11241419310995E-06  -1.51457183447341E-15   0.00000000000000E+00
      0.00000000000000E+00   0.00000000000000E+00   0.00000000000000E+00   4.61792432792346E-25   6.11241418605624E-06
      6.11241418605624E-06  -7.07480856807361E-16
      5.81683842514948E-01
     -4.54209606287371E-01  -4.54209606287371E-01   0.00000000000000E+00   0.00000000000000E+00   5.17129390986157E-36
     -5.17129390986157E-36   0.00000000000000E+00  -1.15030529486789E-15   0.00000000000000E+00   0.00000000000000E+00
      0.00000000000000E+00   0.00000000000000E+00   5.96825481903808E-15   6.98789776725483E-17   6.03813379671063E-15
      3.31263656925692E-15  -1.00000000000000E+00  -1.00000000000000E+00   0.00000000000000E+00   0.00000000000000E+00
     -9.33795452904049E-22  -1.29430013912713E-05  -1.29430013912713E-05  -1.48061411247809E-15   0.00000000000000E+00
      0.00000000000000E+00   0.00000000000000E+00   0.00000000000000E+00   9.78548348567116E-25   1.29430013852332E-05
      1.29430013852332E-05  -6.81717161910936E-16
      6.00000000000000E-01
     -5.00000000000000E-01  -5.00000000000000E-01   0.00000000000000E+00   0.00000000000000E+00   5.11104458309592E-36
     -5.11104458309592E-36   0.00000000000000E+00  -1.26277900248040E-15   0.00000000000000E+00   0.00000000000000E+00
      0.00000000000000E+00   0.00000000000000E+00   6.00116991413102E-15  -1.05524349558185E-14  -4.55126504168751E-15
      3.39238906174258E-15  -1.00000000000000E+00  -1.00000000000000E+00   0.00000000000000E+00   0.00000000000000E+00
     -9.34194971355122E-22  -1.78063545221065E-05  -1.78063545221065E-05  -1.46193040424856E-15   0.00000000000000E+00
      0.00000000000000E+00   0.00000000000000E+00   0.00000000000000E+00   1.34619452233134E-24   1.78063545266579E-05
      1.78063545266579E-05  -6.67679655013622E-16
      6.41049194445510E-01
     -6.02622986113776E-01  -6.02622986113776E-01   0.00000000000000E+00   0.00000000000000E+00   5.11310035048590E-36
     -5.11310035048590E-36   0.00000000000000E+00  -1.52313448011494E-15   0.00000000000000E+00   0.00000000000000E+00
      0.00000000000000E+00   0.00000000000000E+00   6.07881748080056E-15  -5.57540698818956E-19   6.07825994010174E-15
      3.58012381643821E-15  -1.00000000000000E+00  -1.00000000000000E+00   0.00000000000000E+00   0.00000000000000E+00
     -9.35294906662384E-22  -3.11847601713757E-05  -3.11847601713757E-05  -1.42031008612629E-15   0.00000000000000E+00
      0.00000000000000E+00   0.00000000000000E+00   0.00000000000000E+00   2.35823213233838E-24   3.11847601652976E-05
      3.11847601652976E-05  -6.36679250196992E-16
      6.91950195557943E-01
     -7.29875488894858E-01  -7.29875488894858E-01   0.00000000000000E+00   0.00000000000000E+00   2.29467658608151E-36
     -2.29467658608151E-36   0.00000000000000E+00  -1.85731056374014E-15   0.00000000000000E+00   0.00000000000000E+00
      0.00000000000000E+00   0.00000000000000E+00   6.17341918190442E-15  -9.32015287352387E-19   6.17248716661707E-15
      3.82547872415778E-15  -1.00000000000000E+00  -1.00000000000000E+00   0.00000000000000E+00   0.00000000000000E+00
     -9.36990155419802E-22  -5.17881528155725E-05  -5.17881528155725E-05  -1.36917064125900E-15   0.00000000000000E+00
      0.00000000000000E+00   0.00000000000000E+00   0.00000000000000E+00   3.91757213576794E-24   5.17881528094004E-05
      5.17881528094004E-05  -5.98997519158637E-16
      7.00000000000000E-01
     -7.50000000000000E-01  -7.50000000000000E-01   0.00000000000000E+00   0.00000000000000E+00   8.18266658101231E-36
     -8.18266658101231E-36   0.00000000000000E+00  -1.91103679577552E-15   0.00000000000000E+00   0.00000000000000E+00
      0.00000000000000E+00   0.00000000000000E+00   6.18819216686345E-15   3.46685005648647E-19   6.18853885186910E-15
      3.86527728942825E-15  -1.00000000000000E+00  -1.00000000000000E+00   0.00000000000000E+00   0.00000000000000E+00
     -9.37286597913343E-22  -5.53898415060777E-05  -5.53898415060777E-05  -1.36113244680554E-15   0.00000000000000E+00
      0.00000000000000E+00   0.00000000000000E+00   0.00000000000000E+00   4.19088269225386E-24   5.53898414998893E-05
      5.53898414998893E-05  -5.93108046847183E-16
      7.50901001112433E-01
     -8.77252502781082E-01  -8.77252502781082E-01   0.00000000000000E+00   0.00000000000000E+00   5.21424522542367E-36
     -5.21424522542367E-36   0.00000000000000E+00  -2.25514366316743E-15   0.00000000000000E+00   0.00000000000000E+00
      0.00000000000000E+00   0.00000000000000E+00   6.27806470135127E-15  -5.25631958084979E-19   6.27753906939318E-15
      4.12208387839651E-15  -1.00000000000000E+00  -1.00000000000000E+00   0.00000000000000E+00   0.00000000000000E+00
     -9.39308289254489E-22  -7.99464282831707E-05  -7.99464282831707E-05  -1.31066283449119E-15   0.00000000000000E+00
      0.00000000000000E+00   0.00000000000000E+00   0.00000000000000E+00   6.04951981711911E-24   7.99464282768935E-05
      7.99464282768935E-05  -5.56277380737889E-16
      7.75450500556216E-01
     -9.38626251390541E-01  -9.38626251390541E-01   0.00000000000000E+00   0.00000000000000E+00   5.24785374919220E-36
     -5.24785374919220E-36   0.00000000000000E+00  -2.42344430705804E-15   0.00000000000000E+00   0.00000000000000E+00
      0.00000000000000E+00   0.00000000000000E+00   6.31923360929511E-15   3.25980444351326E-19   6.31955958973947E-15
      4.24877802629640E-15  -1.00000000000000E+00  -1.00000000000000E+00   0.00000000000000E+00   0.00000000000000E+00
     -9.40360932510738E-22  -9.27289463875143E-05  -9.27289463875143E-05  -1.28657777690634E-15   0.00000000000000E+00
      0.00000000000000E+00   0.00000000000000E+00   0.00000000000000E+00   7.01727330038678E-24   9.27289463811951E-05
      9.27289463811951E-05  -5.38755942332022E-16
      8.00000000000000E-01
     -1.00000000000000E+00  -1.00000000000000E+00   0.00000000000000E+00   0.00000000000000E+00   5.23489526881724E-36