DF-ISE text

Info {
  version   = 1.0
  type      = xyplot
  datasets  = [
    "time"
    "gate OuterVoltage" "gate InnerVoltage" "gate QuasiFermiPotential" "gate DisplacementCurrent" "gate eCurrent"
    "gate hCurrent" "gate TotalCurrent" "gate Charge" "substrate OuterVoltage" "substrate InnerVoltage"
    "substrate QuasiFermiPotential" "substrate DisplacementCurrent" "substrate eCurrent" "substrate hCurrent" "substrate TotalCurrent"
    "substrate Charge" "drain OuterVoltage" "drain InnerVoltage" "drain QuasiFermiPotential" "drain DisplacementCurrent"
    "drain eCurrent" "drain hCurrent" "drain TotalCurrent" "drain Charge" "source OuterVoltage"
    "source InnerVoltage" "source QuasiFermiPotential" "source DisplacementCurrent" "source eCurrent" "source hCurrent"
    "source TotalCurrent" "source Charge" ]
  functions = [
    Time
    OuterVoltage InnerVoltage QuasiFermiPotential DisplacementCurrent eCurrent
    hCurrent TotalCurrent Charge OuterVoltage InnerVoltage
    QuasiFermiPotential DisplacementCurrent eCurrent hCurrent TotalCurrent
    Charge OuterVoltage InnerVoltage QuasiFermiPotential DisplacementCurrent
    eCurrent hCurrent TotalCurrent Charge OuterVoltage
    InnerVoltage QuasiFermiPotential DisplacementCurrent eCurrent hCurrent
    TotalCurrent Charge ]
}

Data {
      0.00000000000000E+00
     -1.00000000000000E+00  -1.00000000000000E+00   0.00000000000000E+00   0.00000000000000E+00   8.09250877247277E-36
     -8.09250877247277E-36   0.00000000000000E+00  -9.77733743098128E-16   0.00000000000000E+00   0.00000000000000E+00
      0.00000000000000E+00   0.00000000000000E+00   2.31597007574583E-20  -1.38471294079748E-15  -1.38468978109672E-15
     -3.20716456952880E-15   1.00000000000000E+00   1.00000000000000E+00   0.00000000000000E+00   0.00000000000000E+00
      1.38490519629736E-15   9.36077014891069E-21   1.38491455706751E-15   2.59118597908171E-15   0.00000000000000E+00
      0.00000000000000E+00   0.00000000000000E+00   0.00000000000000E+00  -2.24775970803248E-19   1.56415952697673E-29
     -2.24775970787607E-19   1.59371233354521E-15
      1.00000000000000E-03
     -9.97500000000000E-01  -9.97500000000000E-01   0.00000000000000E+00   0.00000000000000E+00   8.11729803559112E-36
     -8.11729803559112E-36   0.00000000000000E+00  -9.75003768697755E-16   0.00000000000000E+00   0.00000000000000E+00
      0.00000000000000E+00   0.00000000000000E+00  -6.59174113876942E-21  -1.38438787325407E-15  -1.38439446499521E-15
     -3.20824613192671E-15   1.00000000000000E+00   1.00000000000000E+00   0.00000000000000E+00   0.00000000000000E+00
      1.38456761466148E-15   9.36077061505736E-21   1.38457697543209E-15   2.59037452083819E-15   0.00000000000000E+00
      0.00000000000000E+00   0.00000000000000E+00   0.00000000000000E+00  -1.82510436702190E-19  -1.79114568000815E-28
     -1.82510436881305E-19   1.59287537978625E-15
      2.28000000000000E-03
     -9.94300000000000E-01  -9.94300000000000E-01   0.00000000000000E+00   0.00000000000000E+00   8.19592115350732E-36
     -8.19592115350732E-36   0.00000000000000E+00  -9.71516618797546E-16   0.00000000000000E+00   0.00000000000000E+00
      0.00000000000000E+00   0.00000000000000E+00  -7.16181142162831E-20  -1.38397870052637E-15  -1.38405031864059E-15
     -3.20962243253211E-15   1.00000000000000E+00   1.00000000000000E+00   0.00000000000000E+00   0.00000000000000E+00
      1.38416327120178E-15   9.36077121277260E-21   1.38417263197299E-15   2.58933549377328E-15   0.00000000000000E+00
      0.00000000000000E+00   0.00000000000000E+00   0.00000000000000E+00  -1.22313332609791E-19   2.02088091175739E-28
     -1.22313332407702E-19   1.59180355755638E-15
      3.91840000000000E-03
     -9.90204000000000E-01  -9.90204000000000E-01   0.00000000000000E+00   0.00000000000000E+00   8.14970125417238E-36
     -8.14970125417238E-36   0.00000000000000E+00  -9.67064813413465E-16   0.00000000000000E+00   0.00000000000000E+00
      0.00000000000000E+00   0.00000000000000E+00   5.05883662236367E-20  -1.38346629114986E-15  -1.38341570278364E-15
     -3.21137091175186E-15   1.00000000000000E+00   1.00000000000000E+00   0.00000000000000E+00   0.00000000000000E+00
      1.38368691234645E-15   9.36077197591131E-21   1.38369627311843E-15   2.58800495096429E-15   0.00000000000000E+00
      0.00000000000000E+00   0.00000000000000E+00   0.00000000000000E+00  -2.80570334835603E-19   4.19992353786537E-29
     -2.80570334793604E-19   1.59043077420105E-15
      6.01555200000000E-03
     -9.84961120000000E-01  -9.84961120000000E-01   0.00000000000000E+00   0.00000000000000E+00   8.12786042551581E-36
     -8.12786042551581E-36   0.00000000000000E+00  -9.61385576490604E-16   0.00000000000000E+00   0.00000000000000E+00
      0.00000000000000E+00   0.00000000000000E+00  -4.77201455258302E-20  -1.38282896258625E-15  -1.38287668273177E-15
     -3.21358754596490E-15   1.00000000000000E+00   1.00000000000000E+00   0.00000000000000E+00   0.00000000000000E+00
      1.38310077193231E-15   9.36077295443843E-21   1.38311013270527E-15   2.58630089781311E-15   0.00000000000000E+00
      0.00000000000000E+00   0.00000000000000E+00   0.00000000000000E+00  -2.33449973606041E-19   1.08009084847290E-28
     -2.33449973498032E-19   1.58867222464237E-15
      8.69990656000000E-03
     -9.78250233600000E-01  -9.78250233600000E-01   0.00000000000000E+00   0.00000000000000E+00   8.17867389267674E-36
     -8.17867389267674E-36   0.00000000000000E+00  -9.54147026050289E-16   0.00000000000000E+00   0.00000000000000E+00
      0.00000000000000E+00   0.00000000000000E+00  -1.43924970252808E-19  -1.38204349447861E-15  -1.38218741944886E-15
     -3.21639014934906E-15   1.00000000000000E+00   1.00000000000000E+00   0.00000000000000E+00   0.00000000000000E+00
      1.38234927779490E-15   9.36077420685700E-21   1.38235863856911E-15   2.58411815085359E-15   0.00000000000000E+00
      0.00000000000000E+00   0.00000000000000E+00   0.00000000000000E+00  -1.71219120308281E-19   5.80533015079420E-29
     -1.71219120250228E-19   1.58641902454576E-15
      1.21358803968000E-02
     -9.69660299008000E-01  -9.69660299008000E-01   0.00000000000000E+00   0.00000000000000E+00   8.25878737917345E-36
     -8.25878737917345E-36   0.00000000000000E+00  -9.44931424099597E-16   0.00000000000000E+00   0.00000000000000E+00
      0.00000000000000E+00   0.00000000000000E+00  -7.06736694103431E-20  -1.38108740712350E-15  -1.38115808079291E-15
     -3.21992154513555E-15   1.00000000000000E+00   1.00000000000000E+00   0.00000000000000E+00   0.00000000000000E+00
      1.38136915125082E-15   9.36077580923926E-21   1.38137851202663E-15   2.58132170452438E-15   0.00000000000000E+00
      0.00000000000000E+00   0.00000000000000E+00   0.00000000000000E+00  -2.20431233679044E-19  -3.63604910670271E-29
     -2.20431233715404E-19   1.58353126471078E-15
      1.65339269079040E-02
     -9.58665182730240E-01  -9.58665182730240E-01   0.00000000000000E+00   0.00000000000000E+00   8.23145269054945E-36
     -8.23145269054945E-36   0.00000000000000E+00  -9.33215075625014E-16   0.00000000000000E+00   0.00000000000000E+00
      0.00000000000000E+00   0.00000000000000E+00   5.83884220274163E-20  -1.37994332777349E-15  -1.37988493935146E-15
     -3.22435208537850E-15   1.00000000000000E+00   1.00000000000000E+00   0.00000000000000E+00   0.00000000000000E+00
      1.38022007843499E-15   9.36077786098138E-21   1.38022943921285E-15   2.57773815869641E-15   0.00000000000000E+00
      0.00000000000000E+00   0.00000000000000E+00   0.00000000000000E+00  -3.44499861668820E-19   2.73277588051756E-28
     -3.44499861395543E-19   1.57982900230709E-15
      2.21634264421171E-02
     -9.44591433894707E-01  -9.44591433894707E-01   0.00000000000000E+00   0.00000000000000E+00   8.23504047180886E-36
     -8.23504047180886E-36   0.00000000000000E+00  -9.18344393160948E-16   0.00000000000000E+00   0.00000000000000E+00
      0.00000000000000E+00   0.00000000000000E+00   7.48152658601082E-19  -1.37860659577789E-15  -1.37785844311929E-15
     -3.22988077646062E-15   1.00000000000000E+00   1.00000000000000E+00   0.00000000000000E+00   0.00000000000000E+00
      1.37879618513692E-15   9.36078048709524E-21   1.37880554591740E-15   2.57314462029321E-15   0.00000000000000E+00
      0.00000000000000E+00   0.00000000000000E+00   0.00000000000000E+00  -9.47102799359133E-19   1.24535351008746E-27
     -9.47102798113780E-19   1.57508054932835E-15
      2.93691858459099E-02
     -9.26577035385225E-01  -9.26577035385225E-01   0.00000000000000E+00   0.00000000000000E+00   8.66301361862462E-36
     -8.66301361862462E-36   0.00000000000000E+00  -8.99507332306874E-16   0.00000000000000E+00   0.00000000000000E+00
      0.00000000000000E+00   0.00000000000000E+00   4.78010939866460E-18  -1.37709733979279E-15  -1.37231723039413E-15
     -3.23673419294072E-15   1.00000000000000E+00   1.00000000000000E+00   0.00000000000000E+00   0.00000000000000E+00
      1.37737621116644E-15   9.36078384244809E-21   1.37738557195029E-15   2.56725430952932E-15   0.00000000000000E+00
      0.00000000000000E+00   0.00000000000000E+00   0.00000000000000E+00  -5.06834156321510E-18   7.05693025012184E-27
     -5.06834155615817E-18   1.56898721571827E-15
      3.85925578827647E-02
     -9.03518605293088E-01  -9.03518605293088E-01   0.00000000000000E+00   0.00000000000000E+00   8.09611519024365E-36
     -8.09611519024365E-36   0.00000000000000E+00  -8.75698472513784E-16   0.00000000000000E+00   0.00000000000000E+00
      0.00000000000000E+00   0.00000000000000E+00  -9.23888648299998E-20  -1.37547935993250E-15  -1.37557174879733E-15
     -3.24516279718508E-15   1.00000000000000E+00   1.00000000000000E+00   0.00000000000000E+00   0.00000000000000E+00
      1.37579379221165E-15   9.36078815642586E-21   1.37580315299980E-15   2.55969786404832E-15   0.00000000000000E+00
      0.00000000000000E+00   0.00000000000000E+00   0.00000000000000E+00  -2.31404202780601E-19   3.05113023739070E-28
     -2.31404202475488E-19   1.56116340565053E-15
      5.02140066492017E-02
     -8.74464983376996E-01  -8.74464983376996E-01   0.00000000000000E+00   0.00000000000000E+00   8.17199102723269E-36
     -8.17199102723269E-36   0.00000000000000E+00  -8.46139437039270E-16   0.00000000000000E+00   0.00000000000000E+00
      0.00000000000000E+00   0.00000000000000E+00  -1.83171281661193E-19  -1.37390677649422E-15  -1.37408994777589E-15
     -3.25527939919301E-15   1.00000000000000E+00   1.00000000000000E+00   0.00000000000000E+00   0.00000000000000E+00
      1.37434990380390E-15   9.36079358250253E-21   1.37435926459748E-15   2.55015079650860E-15   0.00000000000000E+00
      0.00000000000000E+00   0.00000000000000E+00   0.00000000000000E+00  -2.69316821613976E-19   1.62038916937257E-29
     -2.69316821597772E-19   1.55126803972367E-15
      6.48570320949124E-02
     -8.37857419762719E-01  -8.37857419762719E-01   0.00000000000000E+00   0.00000000000000E+00   8.08447535473067E-36
     -8.08447535473067E-36   0.00000000000000E+00  -8.09508021363280E-16   0.00000000000000E+00   0.00000000000000E+00
      0.00000000000000E+00   0.00000000000000E+00  -1.66485657417544E-20  -1.37258164853468E-15  -1.37259829710042E-15
     -3.26731785235863E-15   1.00000000000000E+00   1.00000000000000E+00   0.00000000000000E+00   0.00000000000000E+00
      1.37313177298567E-15   9.36080042128810E-21   1.37314113378610E-15   2.53808221408711E-15   0.00000000000000E+00
      0.00000000000000E+00   0.00000000000000E+00   0.00000000000000E+00  -5.42836685996561E-19   3.28470856650793E-28
     -5.42836685668091E-19   1.53874365963479E-15
      8.33072441565078E-02
     -7.91731889608731E-01  -7.91731889608731E-01   0.00000000000000E+00   0.00000000000000E+00   8.14759238867687E-36
     -8.14759238867687E-36   0.00000000000000E+00  -7.64169421975132E-16   0.00000000000000E+00   0.00000000000000E+00
      0.00000000000000E+00   0.00000000000000E+00  -2.17570849870554E-19  -1.37176625870178E-15  -1.37198382955165E-15
     -3.28152718242189E-15   1.00000000000000E+00   1.00000000000000E+00   0.00000000000000E+00   0.00000000000000E+00
      1.37262015721698E-15   9.36080904109927E-21   1.37262951802602E-15   2.52281698010615E-15   0.00000000000000E+00
      0.00000000000000E+00   0.00000000000000E+00   0.00000000000000E+00  -6.45688474643999E-19   2.68550365655717E-28
     -6.45688474375449E-19   1.52287962429087E-15
      1.00000000000000E-01
     -7.50000000000000E-01  -7.50000000000000E-01   0.00000000000000E+00   0.00000000000000E+00   8.22875153488567E-36
     -8.22875153488567E-36   0.00000000000000E+00  -7.23793584082383E-16   0.00000000000000E+00   0.00000000000000E+00
      0.00000000000000E+00   0.00000000000000E+00   1.27002688362250E-19  -1.37169880507785E-15  -1.37157180238949E-15
     -3.29361155386035E-15   1.00000000000000E+00   1.00000000000000E+00   0.00000000000000E+00   0.00000000000000E+00
      1.37310640420251E-15   9.36081684297731E-21   1.37311576501935E-15   2.50895264338727E-15   0.00000000000000E+00
      0.00000000000000E+00   0.00000000000000E+00   0.00000000000000E+00  -1.54396262981813E-18  -4.64660253559543E-29
     -1.54396262986459E-18   1.50845249455546E-15
      1.23247267197610E-01
     -6.91881832005974E-01  -6.91881832005974E-01   0.00000000000000E+00   0.00000000000000E+00   8.10182104533398E-36
     -8.10182104533398E-36   0.00000000000000E+00  -6.68379162564449E-16   0.00000000000000E+00   0.00000000000000E+00
      0.00000000000000E+00   0.00000000000000E+00   6.67982435944372E-20  -1.37255260310977E-15  -1.37248580486618E-15
     -3.30943897126087E-15   1.00000000000000E+00   1.00000000000000E+00   0.00000000000000E+00   0.00000000000000E+00
      1.37713604269921E-15   9.36082771249089E-21   1.37714540352693E-15   2.48956543159652E-15   0.00000000000000E+00
      0.00000000000000E+00   0.00000000000000E+00   0.00000000000000E+00  -4.65959866084444E-18   9.30840917663608E-29
     -4.65959866075136E-18   1.48825270222879E-15
      1.52538823866599E-01
     -6.18652940333502E-01  -6.18652940333502E-01   0.00000000000000E+00   0.00000000000000E+00   8.03078623074217E-36
     -8.03078623074217E-36   0.00000000000000E+00  -5.99609628209571E-16   0.00000000000000E+00   0.00000000000000E+00
      0.00000000000000E+00   0.00000000000000E+00  -6.69713520217215E-20  -1.37533466358648E-15  -1.37540163493850E-15
     -3.32804471196439E-15   1.00000000000000E+00   1.00000000000000E+00   0.00000000000000E+00   0.00000000000000E+00
      1.39856898008870E-15   9.36084141559224E-21   1.39857834093012E-15   2.46501494927002E-15   0.00000000000000E+00
      0.00000000000000E+00   0.00000000000000E+00   0.00000000000000E+00  -2.31767059917198E-17   1.03966011882961E-28
     -2.31767059916158E-17   1.46263939090395E-15
      1.88860354136145E-01
     -5.27849114659637E-01  -5.27849114659637E-01   0.00000000000000E+00   0.00000000000000E+00   8.13809677019001E-36
     -8.13809677019001E-36   0.00000000000000E+00  -5.15533322432150E-16   0.00000000000000E+00   0.00000000000000E+00
      0.00000000000000E+00   0.00000000000000E+00   1.50247803321546E-19  -1.38230578660165E-15  -1.38215553879832E-15
     -3.34952133503137E-15   1.00000000000000E+00   1.00000000000000E+00   0.00000000000000E+00   0.00000000000000E+00
      1.58382138017838E-15   9.36085841843739E-21   1.58383074103680E-15   2.43439501337946E-15   0.00000000000000E+00
      0.00000000000000E+00   0.00000000000000E+00   0.00000000000000E+00  -2.01675202238134E-16  -3.39380417021271E-28
     -2.01675202238474E-16   1.43065964408405E-15
      2.00000000000000E-01
     -5.00000000000000E-01  -5.00000000000000E-01   0.00000000000000E+00   0.00000000000000E+00   8.09811624463781E-36
     -8.09811624463781E-36   0.00000000000000E+00  -4.89952236583883E-16   0.00000000000000E+00   0.00000000000000E+00
      0.00000000000000E+00   0.00000000000000E+00   1.41225413305001E-19  -1.38546376515358E-15  -1.38532253974027E-15
     -3.35582263073974E-15   1.00000000000000E+00   1.00000000000000E+00   0.00000000000000E+00   0.00000000000000E+00
      1.78593891499453E-15   9.36086363545455E-21   1.78594827585817E-15   2.42496636211931E-15   0.00000000000000E+00
      0.00000000000000E+00   0.00000000000000E+00   0.00000000000000E+00  -4.00625736118332E-16   4.39141690699338E-28
     -4.00625736117892E-16   1.42080850520430E-15
      2.44312266928846E-01
     -3.89219332677884E-01  -3.89219332677884E-01   0.00000000000000E+00   0.00000000000000E+00   8.13650027461019E-36
     -8.13650027461019E-36   0.00000000000000E+00  -3.88916261327521E-16   0.00000000000000E+00   0.00000000000000E+00
      0.00000000000000E+00   0.00000000000000E+00  -1.41164834077371E-19  -1.40211480468802E-15  -1.40225596952210E-15
     -3.37982417889967E-15   1.00000000000000E+00   1.00000000000000E+00   0.00000000000000E+00   0.00000000000000E+00
      8.03522309324718E-15   9.36088439995550E-21   8.03523245413158E-15   2.38728959630329E-15   0.00000000000000E+00
      0.00000000000000E+00   0.00000000000000E+00   0.00000000000000E+00  -6.63297648460941E-15  -8.12518764039999E-29
     -6.63297648460949E-15   1.38145084392391E-15
      2.99259477920616E-01
     -2.51851305198460E-01  -2.51851305198460E-01   0.00000000000000E+00   0.00000000000000E+00   8.16036082086325E-36
     -8.16036082086325E-36   0.00000000000000E+00  -2.64844931920569E-16   0.00000000000000E+00   0.00000000000000E+00
      0.00000000000000E+00   0.00000000000000E+00   5.74249652817526E-20  -1.41417702404951E-15  -1.41411959908423E-15
     -3.40769538055711E-15   1.00000000000000E+00   1.00000000000000E+00   0.00000000000000E+00   0.00000000000000E+00
      2.44275264445424E-13   9.36091017279579E-21   2.44275273806334E-13   2.34018781575586E-15   0.00000000000000E+00
      0.00000000000000E+00   0.00000000000000E+00   0.00000000000000E+00  -2.42861154207252E-13   1.63432230087969E-28
     -2.42861154207251E-13   1.33235249672182E-15
      3.00000000000000E-01
     -2.50000000000000E-01  -2.50000000000000E-01   0.00000000000000E+00   0.00000000000000E+00   8.21902756423107E-36
     -8.21902756423107E-36   0.00000000000000E+00  -2.63180008945179E-16   0.00000000000000E+00   0.00000000000000E+00
      0.00000000000000E+00   0.00000000000000E+00   5.72228435122457E-19  -1.41416795066430E-15  -1.41359572222918E-15
     -3.40805926468575E-15   1.00000000000000E+00   1.00000000000000E+00   0.00000000000000E+00   0.00000000000000E+00
      2.56527446723932E-13   9.36091052031036E-21   2.56527456084842E-13   2.33955003142532E-15   0.00000000000000E+00
      0.00000000000000E+00   0.00000000000000E+00   0.00000000000000E+00  -2.55113860362612E-13   3.35455260757381E-28
     -2.55113860362612E-13   1.33168924220563E-15
      3.67035597409959E-01
     -8.24110064751029E-02  -8.24110064751029E-02   0.00000000000000E+00   0.00000000000000E+00   8.20495742498275E-36
     -8.20495742498275E-36   0.00000000000000E+00  -1.13054272539036E-16   0.00000000000000E+00   0.00000000000000E+00
      0.00000000000000E+00   0.00000000000000E+00   1.57809708983152E-19  -1.40496201651652E-15  -1.40480420680754E-15
     -3.44001229170486E-15   1.00000000000000E+00   1.00000000000000E+00   0.00000000000000E+00   0.00000000000000E+00
      2.32913391348028E-11   9.36094200408363E-21   2.32913391441638E-11   2.28145888851284E-15   0.00000000000000E+00
      0.00000000000000E+00   0.00000000000000E+00   0.00000000000000E+00  -2.32899343399571E-11   4.03282673587593E-29
     -2.32899343399571E-11   1.27160767573106E-15
      4.00000000000000E-01
      0.00000000000000E+00   0.00000000000000E+00   0.00000000000000E+00   0.00000000000000E+00   8.19395839706244E-36
     -8.19395839706244E-36   0.00000000000000E+00  -3.95388660806336E-17   0.00000000000000E+00   0.00000000000000E+00
      0.00000000000000E+00   0.00000000000000E+00   4.64755094057298E-19  -1.39997529447923E-15  -1.39951053938517E-15
     -3.45523364084465E-15   1.00000000000000E+00   1.00000000000000E+00   0.00000000000000E+00   0.00000000000000E+00
      2.21624243338868E-10   9.36095753153778E-21   2.21624243348229E-10   2.25261764088225E-15   0.00000000000000E+00
      0.00000000000000E+00   0.00000000000000E+00   0.00000000000000E+00  -2.21622843837690E-10   2.14329542575435E-28
     -2.21622843837690E-10   1.24215486604303E-15
      4.79102004943751E-01
      1.97755012359379E-01   1.97755012359379E-01   0.00000000000000E+00   0.00000000000000E+00   8.22186112020542E-36
     -8.22186112020542E-36   0.00000000000000E+00   1.37094815878442E-16   0.00000000000000E+00   0.00000000000000E+00
      0.00000000000000E+00   0.00000000000000E+00   1.17859506978405E-18  -1.39232895800290E-15  -1.39115036293311E-15
     -3.49254424849281E-15   1.00000000000000E+00   1.00000000000000E+00   0.00000000000000E+00   0.00000000000000E+00
      5.04202933195687E-08   9.36100306133421E-21   5.04202933195781E-08   2.18262786308006E-15   0.00000000000000E+00
      0.00000000000000E+00   0.00000000000000E+00   0.00000000000000E+00  -5.04202919284280E-08  -2.06907561062437E-28
     -5.04202919284280E-08   1.17282156953430E-15
      5.00000000000000E-01
      2.50000000000000E-01   2.50000000000000E-01   0.00000000000000E+00   0.00000000000000E+00   8.05257969110706E-36
     -8.05257969110706E-36   0.00000000000000E+00   1.84414657472113E-16   0.00000000000000E+00   0.00000000000000E+00
      0.00000000000000E+00   0.00000000000000E+00   1.01463874536692E-17  -1.39087836544028E-15  -1.38073197798661E-15
     -3.50357674144422E-15   1.00000000000000E+00   1.00000000000000E+00   0.00000000000000E+00   0.00000000000000E+00
      2.04586427502697E-07   9.36103837393715E-21   2.04586427502707E-07   2.16395617083885E-15   0.00000000000000E+00
      0.00000000000000E+00   0.00000000000000E+00   0.00000000000000E+00  -2.04586426121976E-07  -1.72381102183775E-27
     -2.04586426121976E-07   1.15520591313324E-15
      5.19775501235938E-01
      2.99438753089845E-01   2.99438753089845E-01   0.00000000000000E+00   0.00000000000000E+00   8.26669762160235E-36
     -8.26669762160235E-36   0.00000000000000E+00   2.30160797482862E-16   0.00000000000000E+00   0.00000000000000E+00
      0.00000000000000E+00   0.00000000000000E+00   2.61778974077828E-18  -1.39073297666945E-15  -1.38811518692867E-15
     -3.51541535889843E-15   1.00000000000000E+00   1.00000000000000E+00   0.00000000000000E+00   0.00000000000000E+00
      7.22163299871229E-07   9.36113340966933E-21   7.22163299871238E-07   2.14621662566694E-15   0.00000000000000E+00
      0.00000000000000E+00   0.00000000000000E+00   0.00000000000000E+00  -7.22163298483127E-07  -4.97354265363963E-27
     -7.22163298483127E-07   1.13903793574863E-15
      5.44297122768501E-01
      3.60742806921252E-01   3.60742806921252E-01   0.00000000000000E+00   0.00000000000000E+00   3.40134021618335E-36
     -3.40134021618335E-36   0.00000000000000E+00   2.89509396347580E-16   0.00000000000000E+00   0.00000000000000E+00
      0.00000000000000E+00   0.00000000000000E+00   4.70056252717658E-14  -1.39349861032363E-15   4.56121266614421E-14
     -3.53350559077853E-15   1.00000000000000E+00   1.00000000000000E+00   0.00000000000000E+00   0.00000000000000E+00
      2.84623650224390E-06   9.36149655105410E-21   2.84623650224391E-06   2.12411040282233E-15   0.00000000000000E+00
      0.00000000000000E+00   0.00000000000000E+00   0.00000000000000E+00  -2.84623654785605E-06  -2.02966829130399E-26
     -2.84623654785605E-06   1.11988579160862E-15
      5.74703933468879E-01
      4.36759833672197E-01   4.36759833672197E-01   0.00000000000000E+00   0.00000000000000E+00   1.27221481633810E-35
     -1.27221481633810E-35   0.00000000000000E+00   3.68912862383722E-16   0.00000000000000E+00   0.00000000000000E+00
      0.00000000000000E+00   0.00000000000000E+00   1.51423243421941E-18  -1.40288425633255E-15  -1.40137002389834E-15
     -3.56307741361681E-15   1.00000000000000E+00   1.00000000000000E+00   0.00000000000000E+00   0.00000000000000E+00
      1.00370905855489E-05   9.36270136080315E-21   1.00370905855489E-05   2.09650791352420E-15   0.00000000000000E+00
      0.00000000000000E+00   0.00000000000000E+00   0.00000000000000E+00  -1.00370905841475E-05  -7.14945406754370E-26
     -1.00370905841475E-05   1.09765663770890E-15
      6.00000000000000E-01
      5.00000000000000E-01   5.00000000000000E-01   0.00000000000000E+00   0.00000000000000E+00   8.25283059613427E-36
     -8.25283059613427E-36   0.00000000000000E+00   4.39507958586573E-16   0.00000000000000E+00   0.00000000000000E+00
      0.00000000000000E+00   0.00000000000000E+00  -3.07760862119194E-16  -1.41456294320024E-15  -1.72232380531943E-15
     -3.59316022914442E-15   1.00000000000000E+00   1.00000000000000E+00   0.00000000000000E+00   0.00000000000000E+00
      2.06014783567001E-05   9.36446265205600E-21   2.06014783567001E-05   2.07339238436610E-15   0.00000000000000E+00
      0.00000000000000E+00   0.00000000000000E+00   0.00000000000000E+00  -2.06014783549779E-05  -1.46413853512925E-25
     -2.06014783549779E-05   1.08025988619175E-15
      6.37096309054461E-01
      5.92740772636153E-01   5.92740772636153E-01   0.00000000000000E+00   0.00000000000000E+00   8.17702930307735E-36
     -8.17702930307735E-36   0.00000000000000E+00   5.48150893025606E-16   0.00000000000000E+00   0.00000000000000E+00
      0.00000000000000E+00   0.00000000000000E+00  -3.45457080257607E-14  -1.43431805432571E-15  -3.59800260800864E-14
     -3.64348280848206E-15   1.00000000000000E+00   1.00000000000000E+00   0.00000000000000E+00   0.00000000000000E+00
      4.23933321695910E-05   9.36809041991156E-21   4.23933321695910E-05   2.03929549954551E-15   0.00000000000000E+00
      0.00000000000000E+00   0.00000000000000E+00   0.00000000000000E+00  -4.23933321336111E-05  -3.01367275930590E-25
     -4.23933321336111E-05   1.05603641591094E-15
      6.83095732281993E-01
      7.07739330704983E-01   7.07739330704983E-01   0.00000000000000E+00   0.00000000000000E+00   3.29393213207026E-36
     -3.29393213207026E-36   0.00000000000000E+00   6.88162271685673E-16   0.00000000000000E+00   0.00000000000000E+00
      0.00000000000000E+00   0.00000000000000E+00  -3.39456845193420E-16  -1.45943240751011E-15  -1.79888925270353E-15
     -3.71240635479211E-15   1.00000000000000E+00   1.00000000000000E+00   0.00000000000000E+00   0.00000000000000E+00
      7.68395979250586E-05   9.37382343175031E-21   7.68395979250586E-05   1.99679412739528E-15   0.00000000000000E+00
      0.00000000000000E+00   0.00000000000000E+00   0.00000000000000E+00  -7.68395979232599E-05  -5.45744559854643E-25
     -7.68395979232599E-05   1.02744995571116E-15
      7.00000000000000E-01
      7.50000000000000E-01   7.50000000000000E-01   0.00000000000000E+00   0.00000000000000E+00   1.26621983644403E-35
     -1.26621983644403E-35   0.00000000000000E+00   7.40605967524055E-16   0.00000000000000E+00   0.00000000000000E+00
      0.00000000000000E+00   0.00000000000000E+00   1.84699322884466E-16  -1.46842533399112E-15  -1.28372601110665E-15
     -3.73898064854878E-15   1.00000000000000E+00   1.00000000000000E+00   0.00000000000000E+00   0.00000000000000E+00
      9.09859774480426E-05   9.37617841839999E-21   9.09859774480426E-05   1.98113659571572E-15   0.00000000000000E+00
      0.00000000000000E+00   0.00000000000000E+00   0.00000000000000E+00  -9.09859774467589E-05  -6.46501223215995E-25
     -9.09859774467589E-05   1.01723808530903E-15
      7.28519642401070E-01
      8.21299106002674E-01   8.21299106002674E-01   0.00000000000000E+00   0.00000000000000E+00   1.27234522161232E-35
     -1.27234522161232E-35   0.00000000000000E+00   8.29973672637140E-16   0.00000000000000E+00   0.00000000000000E+00
      0.00000000000000E+00   0.00000000000000E+00   4.48295626457317E-17  -1.48313957388547E-15  -1.43831001123974E-15
     -3.78495574328702E-15   1.00000000000000E+00   1.00000000000000E+00   0.00000000000000E+00   0.00000000000000E+00
      1.16213256295269E-04   9.38037970769803E-21   1.16213256295269E-04   1.95469409464920E-15   0.00000000000000E+00
      0.00000000000000E+00   0.00000000000000E+00   0.00000000000000E+00  -1.16213256293831E-04  -8.26005276419447E-25
     -1.16213256293831E-04   1.00028797600069E-15
      7.64454391826418E-01
      9.11135979566044E-01   9.11135979566044E-01   0.00000000000000E+00   0.00000000000000E+00   8.04436482297360E-36
     -8.04436482297360E-36   0.00000000000000E+00   9.43842353966350E-16   0.00000000000000E+00   0.00000000000000E+00
      0.00000000000000E+00   0.00000000000000E+00   6.40338768246758E-21  -1.50077863217827E-15  -1.50077222879059E-15
     -3.84454405322178E-15   1.00000000000000E+00   1.00000000000000E+00   0.00000000000000E+00   0.00000000000000E+00
      1.49913632135881E-04   9.38599609979645E-21   1.49913632135881E-04   1.92135840771691E-15   0.00000000000000E+00
      0.00000000000000E+00   0.00000000000000E+00   0.00000000000000E+00  -1.49913632134380E-04  -1.06634587958603E-24
     -1.49913632134380E-04   9.79343291538528E-16
      8.00000000000000E-01
      1.00000000000000E+00   1.00000000000000E+00   0.00000000000000E+00   0.00000000000000E+00   8.17913592678754E-36
     -8.17913592678754E-36   0.00000000000000E+00   1.05756166838112E-15   0.00000000000000E+00   0.00000000000000E+00
      0.00000000000000E+00   0.00000000000000E+00  -2.76275553773571E-18  -1.51721827964651E-15  -1.51998103518425E-15
     -3.90495351139535E-15   1.00000000000000E+00   1.00000000000000E+00   0.00000000000000E+00   0.00000000000000E+00
      1.84811053316546E-04   9.39181720763989E-21   1.84811053316546E-04   1.88839983155066E-15   0.00000000000000E+00
      0.00000000000000E+00   0.00000000000000E+00   0.00000000000000E+00  -1.84811053315026E-04  -1.31484407352370E-24
     -1.84811053315026E-04   9.58992011463576E-16
      8.22279544643716E-01
      1.05569886160929E+00   1.05569886160929E+00   0.00000000000000E+00   0.00000000000000E+00   8.12193298823776E-36