DF-ISE text

Info {
  version   = 1.0
  type      = xyplot
  datasets  = [
    "time"
    "gate OuterVoltage" "gate InnerVoltage" "gate QuasiFermiPotential" "gate DisplacementCurrent" "gate eCurrent"
    "gate hCurrent" "gate TotalCurrent" "gate Charge" "substrate OuterVoltage" "substrate InnerVoltage"
    "substrate QuasiFermiPotential" "substrate DisplacementCurrent" "substrate eCurrent" "substrate hCurrent" "substrate TotalCurrent"
    "substrate Charge" "drain OuterVoltage" "drain InnerVoltage" "drain QuasiFermiPotential" "drain DisplacementCurrent"
    "drain eCurrent" "drain hCurrent" "drain TotalCurrent" "drain Charge" "source OuterVoltage"
    "source InnerVoltage" "source QuasiFermiPotential" "source DisplacementCurrent" "source eCurrent" "source hCurrent"
    "source TotalCurrent" "source Charge" ]
  functions = [
    Time
    OuterVoltage InnerVoltage QuasiFermiPotential DisplacementCurrent eCurrent
    hCurrent TotalCurrent Charge OuterVoltage InnerVoltage
    QuasiFermiPotential DisplacementCurrent eCurrent hCurrent TotalCurrent
    Charge OuterVoltage InnerVoltage QuasiFermiPotential DisplacementCurrent
    eCurrent hCurrent TotalCurrent Charge OuterVoltage
    InnerVoltage QuasiFermiPotential DisplacementCurrent eCurrent hCurrent
    TotalCurrent Charge ]
}

Data {
      0.00000000000000E+00
     -1.00000000000000E+00  -1.00000000000000E+00   0.00000000000000E+00   0.00000000000000E+00   4.04268076543041E-36
     -4.04268076543041E-36   0.00000000000000E+00  -1.00866188216340E-15   0.00000000000000E+00   0.00000000000000E+00
      0.00000000000000E+00   0.00000000000000E+00   2.93662961536022E-21  -9.64344152124330E-15  -9.64343858461368E-15
     -6.47000314997516E-15   1.00000000000000E+00   1.00000000000000E+00   0.00000000000000E+00   0.00000000000000E+00
      9.64349364794405E-15   8.56274504377152E-21   9.64350221068909E-15   4.59393387905391E-15   0.00000000000000E+00
      0.00000000000000E+00   0.00000000000000E+00   0.00000000000000E+00  -6.36260455874303E-20  -2.98118218135965E-26
     -6.36260753992521E-20   2.88473115308463E-15
      1.00000000000000E-03
     -9.97500000000000E-01  -9.97500000000000E-01   0.00000000000000E+00   0.00000000000000E+00   4.03395679510782E-36
     -4.03395679510782E-36   0.00000000000000E+00  -1.00604733585968E-15   0.00000000000000E+00   0.00000000000000E+00
      0.00000000000000E+00   0.00000000000000E+00  -6.83511206057824E-22  -9.64258854688514E-15  -9.64258923039634E-15
     -6.47095639457866E-15   1.00000000000000E+00   1.00000000000000E+00   0.00000000000000E+00   0.00000000000000E+00
      9.64264079531730E-15   8.56274531868802E-21   9.64264935806262E-15   4.59313583545369E-15   0.00000000000000E+00
      0.00000000000000E+00   0.00000000000000E+00   0.00000000000000E+00  -6.01277122286579E-20   4.59425889969435E-26
     -6.01276662860689E-20   2.88386789498466E-15
      2.28000000000000E-03
     -9.94300000000000E-01  -9.94300000000000E-01   0.00000000000000E+00   0.00000000000000E+00   4.06888173694225E-36
     -4.06888173694225E-36   0.00000000000000E+00  -1.00270533895033E-15   0.00000000000000E+00   0.00000000000000E+00
      0.00000000000000E+00   0.00000000000000E+00   8.22120803528288E-21  -9.64149307991879E-15  -9.64148485871075E-15
     -6.47217106834720E-15   1.00000000000000E+00   1.00000000000000E+00   0.00000000000000E+00   0.00000000000000E+00
      9.64154796891132E-15   8.56274567060791E-21   9.64155653165699E-15   4.59211392680024E-15   0.00000000000000E+00
      0.00000000000000E+00   0.00000000000000E+00   0.00000000000000E+00  -7.16729809393685E-20   3.46833542501951E-26
     -7.16729462560143E-20   2.88276248049729E-15
      3.91840000000000E-03
     -9.90204000000000E-01  -9.90204000000000E-01   0.00000000000000E+00   0.00000000000000E+00   4.05265116725966E-36
     -4.05265116725966E-36   0.00000000000000E+00  -9.98435112294275E-16   0.00000000000000E+00   0.00000000000000E+00
      0.00000000000000E+00   0.00000000000000E+00   6.26785476495558E-21  -9.64008441577695E-15  -9.64007814792219E-15
     -6.47371691877088E-15   1.00000000000000E+00   1.00000000000000E+00   0.00000000000000E+00   0.00000000000000E+00
      9.64013795378600E-15   8.56274612112062E-21   9.64014651653212E-15   4.59080520680500E-15   0.00000000000000E+00
      0.00000000000000E+00   0.00000000000000E+00   0.00000000000000E+00  -6.83686301406131E-20   2.02268868128336E-26
     -6.83686099137263E-20   2.88134682426015E-15
      6.01555200000000E-03
     -9.84961120000000E-01  -9.84961120000000E-01   0.00000000000000E+00   0.00000000000000E+00   4.02400925288723E-36
     -4.02400925288723E-36   0.00000000000000E+00  -9.92981463189316E-16   0.00000000000000E+00   0.00000000000000E+00
      0.00000000000000E+00   0.00000000000000E+00  -7.75961781455796E-21  -9.63826978535878E-15  -9.63827754497660E-15
     -6.47568107134451E-15   1.00000000000000E+00   1.00000000000000E+00   0.00000000000000E+00   0.00000000000000E+00
      9.63832435722467E-15   8.56274669821157E-21   9.63833291997137E-15   4.58912893506729E-15   0.00000000000000E+00
      0.00000000000000E+00   0.00000000000000E+00   0.00000000000000E+00  -5.53749924873285E-20  -2.26057405388883E-27
     -5.53749947479025E-20   2.87953359946653E-15
      8.69990656000000E-03
     -9.78250233600000E-01  -9.78250233600000E-01   0.00000000000000E+00   0.00000000000000E+00   3.97656654141433E-36
     -3.97656654141433E-36   0.00000000000000E+00  -9.86020640431807E-16   0.00000000000000E+00   0.00000000000000E+00
      0.00000000000000E+00   0.00000000000000E+00   3.41520622413058E-22  -9.63592628958504E-15  -9.63592594806441E-15
     -6.47817158513973E-15   1.00000000000000E+00   1.00000000000000E+00   0.00000000000000E+00   0.00000000000000E+00
      9.63598021388170E-15   8.56274743672897E-21   9.63598877662913E-15   4.58698148610819E-15   0.00000000000000E+00
      0.00000000000000E+00   0.00000000000000E+00   0.00000000000000E+00  -6.28286308024332E-20   6.60921319677740E-26
     -6.28285647103012E-20   2.87721073946334E-15
      1.21358803968000E-02
     -9.69660299008000E-01  -9.69660299008000E-01   0.00000000000000E+00   0.00000000000000E+00   4.03479015768605E-36
     -4.03479015768605E-36   0.00000000000000E+00  -9.77142850368966E-16   0.00000000000000E+00   0.00000000000000E+00
      0.00000000000000E+00   0.00000000000000E+00  -1.72776022136293E-21  -9.63288904636634E-15  -9.63289077412657E-15
     -6.48132124455818E-15   1.00000000000000E+00   1.00000000000000E+00   0.00000000000000E+00   0.00000000000000E+00
      9.63294533064578E-15   8.56274838165746E-21   9.63295389339416E-15   4.58422976289007E-15   0.00000000000000E+00
      0.00000000000000E+00   0.00000000000000E+00   0.00000000000000E+00  -6.31192681275912E-20   5.43031618337998E-28
     -6.31192675845596E-20   2.87423433203707E-15
      1.65339269079040E-02
     -9.58665182730240E-01  -9.58665182730240E-01   0.00000000000000E+00   0.00000000000000E+00   4.10021078222472E-36
     -4.10021078222472E-36   0.00000000000000E+00  -9.65830802740618E-16   0.00000000000000E+00   0.00000000000000E+00
      0.00000000000000E+00   0.00000000000000E+00  -2.15016094962678E-21  -9.62893344778513E-15  -9.62893559794608E-15
     -6.48529126441983E-15   1.00000000000000E+00   1.00000000000000E+00   0.00000000000000E+00   0.00000000000000E+00
      9.62899162692790E-15   8.56274959147223E-21   9.62900018967749E-15   4.58070265055556E-15   0.00000000000000E+00
      0.00000000000000E+00   0.00000000000000E+00   0.00000000000000E+00  -6.45917971478413E-20   6.57395996591959E-26
     -6.45917314082416E-20   2.87041941660489E-15
      2.21634264421171E-02
     -9.44591433894707E-01  -9.44591433894707E-01   0.00000000000000E+00   0.00000000000000E+00   4.11046293550054E-36
     -4.11046293550054E-36   0.00000000000000E+00  -9.51433557080181E-16   0.00000000000000E+00   0.00000000000000E+00
      0.00000000000000E+00   0.00000000000000E+00   2.11369544766220E-21  -9.62374849766017E-15  -9.62374638396472E-15
     -6.49027436520883E-15   1.00000000000000E+00   1.00000000000000E+00   0.00000000000000E+00   0.00000000000000E+00
      9.62380519058019E-15   8.56275113731181E-21   9.62381375333133E-15   4.57617988610071E-15   0.00000000000000E+00
      0.00000000000000E+00   0.00000000000000E+00   0.00000000000000E+00  -6.73694577997293E-20   9.11800926208360E-26
     -6.73693666196367E-20   2.86552803618829E-15
      2.93691858459099E-02
     -9.26577035385225E-01  -9.26577035385225E-01   0.00000000000000E+00   0.00000000000000E+00   4.31852187282817E-36
     -4.31852187282817E-36   0.00000000000000E+00  -9.33134731903800E-16   0.00000000000000E+00   0.00000000000000E+00
      0.00000000000000E+00   0.00000000000000E+00   2.88710082452931E-20  -9.61689747235268E-15  -9.61686860134443E-15
     -6.49649644706556E-15   1.00000000000000E+00   1.00000000000000E+00   0.00000000000000E+00   0.00000000000000E+00
      9.61696008740867E-15   8.56275310028057E-21   9.61696865016177E-15   4.57037749445091E-15   0.00000000000000E+00
      0.00000000000000E+00   0.00000000000000E+00   0.00000000000000E+00  -1.00049618968153E-19   8.01625616572049E-25
     -1.00048817342536E-19   2.85925368451844E-15
      3.85925578827647E-02
     -9.03518605293088E-01  -9.03518605293088E-01   0.00000000000000E+00   0.00000000000000E+00   3.92127106124086E-36
     -3.92127106124086E-36   0.00000000000000E+00  -9.09913615968200E-16   0.00000000000000E+00   0.00000000000000E+00
      0.00000000000000E+00   0.00000000000000E+00  -7.66635665160343E-21  -9.60776113494037E-15  -9.60776880129703E-15
     -6.50421600942895E-15   1.00000000000000E+00   1.00000000000000E+00   0.00000000000000E+00   0.00000000000000E+00
      9.60783052104929E-15   8.56275566080931E-21   9.60783908380495E-15   4.56292861783078E-15   0.00000000000000E+00
      0.00000000000000E+00   0.00000000000000E+00   0.00000000000000E+00  -7.02825105531807E-20   2.61630373671503E-27
     -7.02825079368770E-20   2.85120100756637E-15
      5.02140066492017E-02
     -8.74464983376996E-01  -8.74464983376996E-01   0.00000000000000E+00   0.00000000000000E+00   3.94553443164877E-36
     -3.94553443164877E-36   0.00000000000000E+00  -8.80953656160651E-16   0.00000000000000E+00   0.00000000000000E+00
      0.00000000000000E+00   0.00000000000000E+00   7.42796257107255E-21  -9.59565772823755E-15  -9.59565030027498E-15
     -6.51357541177912E-15   1.00000000000000E+00   1.00000000000000E+00   0.00000000000000E+00   0.00000000000000E+00
      9.59573420235574E-15   8.56275885917042E-21   9.59574276511460E-15   4.55350794058014E-15   0.00000000000000E+00
      0.00000000000000E+00   0.00000000000000E+00   0.00000000000000E+00  -9.24647535532461E-20  -8.60334367860415E-26
     -9.24648395866829E-20   2.84102112735960E-15
      6.48570320949124E-02
     -8.37857419762719E-01  -8.37857419762719E-01   0.00000000000000E+00   0.00000000000000E+00   4.05398509696530E-36
     -4.05398509696530E-36   0.00000000000000E+00  -8.44891218720381E-16   0.00000000000000E+00   0.00000000000000E+00
      0.00000000000000E+00   0.00000000000000E+00   3.11026382196986E-21  -9.57954189441280E-15  -9.57953878414898E-15
     -6.52483350704776E-15   1.00000000000000E+00   1.00000000000000E+00   0.00000000000000E+00   0.00000000000000E+00
      9.57963511027947E-15   8.56276289071783E-21   9.57964367304236E-15   4.54158170613722E-15   0.00000000000000E+00
      0.00000000000000E+00   0.00000000000000E+00   0.00000000000000E+00  -1.04888899664140E-19   6.28038686021931E-27
     -1.04888893383753E-19   2.82814301963092E-15
      8.30143836475936E-02
     -7.92464040881016E-01  -7.92464040881016E-01   0.00000000000000E+00   0.00000000000000E+00   3.96139210401117E-36
     -3.96139210401117E-36   0.00000000000000E+00  -8.00748056157127E-16   0.00000000000000E+00   0.00000000000000E+00
      0.00000000000000E+00   0.00000000000000E+00  -5.15149427268209E-21  -9.55862711423123E-15  -9.55863226572550E-15
     -6.53805480598879E-15   1.00000000000000E+00   1.00000000000000E+00   0.00000000000000E+00   0.00000000000000E+00
      9.55876518008768E-15   8.56276789060182E-21   9.55877374285557E-15   4.52670521746467E-15   0.00000000000000E+00
      0.00000000000000E+00   0.00000000000000E+00   0.00000000000000E+00  -1.41477154848765E-19   2.47864374154677E-26
     -1.41477130062328E-19   2.81209764468124E-15
      1.00000000000000E-01
     -7.50000000000000E-01  -7.50000000000000E-01   0.00000000000000E+00   0.00000000000000E+00   3.96049953527415E-36
     -3.96049953527415E-36   0.00000000000000E+00  -7.59940153235354E-16   0.00000000000000E+00   0.00000000000000E+00
      0.00000000000000E+00   0.00000000000000E+00  -4.00306080797619E-21  -9.53881947815411E-15  -9.53882348121492E-15
     -6.54977353963431E-15   1.00000000000000E+00   1.00000000000000E+00   0.00000000000000E+00   0.00000000000000E+00
      9.53903949918900E-15   8.56277256980889E-21   9.53904806196157E-15   4.51269953794477E-15   0.00000000000000E+00
      0.00000000000000E+00   0.00000000000000E+00   0.00000000000000E+00  -2.24580738211842E-19  -8.46676459915158E-27
     -2.24580746678607E-19   2.79701415492488E-15
      1.21788821863217E-01
     -6.95527945341956E-01  -6.95527945341956E-01   0.00000000000000E+00   0.00000000000000E+00   4.01951088226989E-36
     -4.01951088226989E-36   0.00000000000000E+00  -7.08156168242102E-16   0.00000000000000E+00   0.00000000000000E+00
      0.00000000000000E+00   0.00000000000000E+00   3.47357669790509E-22  -9.51400288990511E-15  -9.51400254254743E-15
     -6.56401489384670E-15   1.00000000000000E+00   1.00000000000000E+00   0.00000000000000E+00   0.00000000000000E+00
      9.51447032383956E-15   8.56277846450293E-21   9.51447888661802E-15   4.49460574141491E-15   0.00000000000000E+00
      0.00000000000000E+00   0.00000000000000E+00   0.00000000000000E+00  -4.76344086025688E-19   1.54366945590776E-26
     -4.76344070588994E-19   2.77756532067388E-15
      1.49242737410871E-01
     -6.26893156472821E-01  -6.26893156472821E-01   0.00000000000000E+00   0.00000000000000E+00   4.02385391019788E-36
     -4.02385391019788E-36   0.00000000000000E+00  -6.43616510303581E-16   0.00000000000000E+00   0.00000000000000E+00
      0.00000000000000E+00   0.00000000000000E+00  -4.67976959361811E-21  -9.48489106931234E-15  -9.48489574908193E-15
     -6.58089081178726E-15   1.00000000000000E+00   1.00000000000000E+00   0.00000000000000E+00   0.00000000000000E+00
      9.48638900172642E-15   8.56275950324989E-21   9.48639756448592E-15   4.47160252985686E-15   0.00000000000000E+00
      0.00000000000000E+00   0.00000000000000E+00   0.00000000000000E+00  -1.50181538678530E-18  -1.71983048945739E-26
     -1.50181540398361E-18   2.75290479223396E-15
      1.83834671000915E-01
     -5.40413322497711E-01  -5.40413322497711E-01   0.00000000000000E+00   0.00000000000000E+00   3.90905813324143E-36
     -3.90905813324143E-36   0.00000000000000E+00  -5.63122010613500E-16   0.00000000000000E+00   0.00000000000000E+00
      0.00000000000000E+00   0.00000000000000E+00   4.52146660440752E-21  -9.45387217826190E-15  -9.45386765679529E-15
     -6.60076322105494E-15   1.00000000000000E+00   1.00000000000000E+00   0.00000000000000E+00   0.00000000000000E+00
      9.46184311528724E-15   8.56279568367847E-21   9.46185167808292E-15   4.44229617818366E-15   0.00000000000000E+00
      0.00000000000000E+00   0.00000000000000E+00   0.00000000000000E+00  -7.98402126399203E-18  -2.36516802507586E-26
     -7.98402128764371E-18   2.72158905348476E-15
      2.00000000000000E-01
     -5.00000000000000E-01  -5.00000000000000E-01   0.00000000000000E+00   0.00000000000000E+00   4.00970398982746E-36
     -4.00970398982746E-36   0.00000000000000E+00  -5.25745094843964E-16   0.00000000000000E+00   0.00000000000000E+00
      0.00000000000000E+00   0.00000000000000E+00  -3.79878582718702E-21  -9.44165538438554E-15  -9.44165918317137E-15
     -6.60959504760132E-15   1.00000000000000E+00   1.00000000000000E+00   0.00000000000000E+00   0.00000000000000E+00
      9.45997281087228E-15   8.56280014307394E-21   9.45998137367242E-15   4.42848056479966E-15   0.00000000000000E+00
      0.00000000000000E+00   0.00000000000000E+00   0.00000000000000E+00  -1.83221904906705E-17  -1.03685501234189E-26
     -1.83221905010391E-17   2.70685957764563E-15
      2.42893997651655E-01
     -3.92765005870863E-01  -3.92765005870863E-01   0.00000000000000E+00   0.00000000000000E+00   3.99648434581467E-36
     -3.99648434581467E-36   0.00000000000000E+00  -4.27128103327885E-16   0.00000000000000E+00   0.00000000000000E+00
      0.00000000000000E+00   0.00000000000000E+00   1.03976590716208E-20  -9.41815204199534E-15  -9.41814164433627E-15
     -6.63180173574349E-15   1.00000000000000E+00   1.00000000000000E+00   0.00000000000000E+00   0.00000000000000E+00
      9.60340094123370E-15   8.56281198691235E-21   9.60340950404569E-15   4.39146727712960E-15   0.00000000000000E+00
      0.00000000000000E+00   0.00000000000000E+00   0.00000000000000E+00  -1.85267859676967E-16  -3.24418126372362E-26
     -1.85267859709409E-16   2.66746256194178E-15
      2.96082554739706E-01
     -2.59793613150734E-01  -2.59793613150734E-01   0.00000000000000E+00   0.00000000000000E+00   3.98316588888349E-36
     -3.98316588888349E-36   0.00000000000000E+00  -3.05703868512413E-16   0.00000000000000E+00   0.00000000000000E+00
      0.00000000000000E+00   0.00000000000000E+00  -4.56983898201751E-22  -9.41022763955527E-15  -9.41022809653917E-15
     -6.65713151170401E-15   1.00000000000000E+00   1.00000000000000E+00   0.00000000000000E+00   0.00000000000000E+00
      1.32461283675147E-14   8.56282668380344E-21   1.32461369303414E-14   4.34491131858063E-15   0.00000000000000E+00
      0.00000000000000E+00   0.00000000000000E+00   0.00000000000000E+00  -3.83590883381861E-15   1.63842905186735E-26
     -3.83590883380223E-15   2.61792406163578E-15
      3.00000000000000E-01
     -2.50000000000000E-01  -2.50000000000000E-01   0.00000000000000E+00   0.00000000000000E+00   4.07066356824523E-36
     -4.07066356824523E-36   0.00000000000000E+00  -2.96789489490340E-16   0.00000000000000E+00   0.00000000000000E+00
      0.00000000000000E+00   0.00000000000000E+00   2.91921490798618E-16  -9.41043337867060E-15  -9.11851188787198E-15
     -6.65891045433025E-15   1.00000000000000E+00   1.00000000000000E+00   0.00000000000000E+00   0.00000000000000E+00
      1.42327077794405E-14   8.56282594048803E-21   1.42327163422665E-14   4.34145592842429E-15   0.00000000000000E+00
      0.00000000000000E+00   0.00000000000000E+00   0.00000000000000E+00  -5.11420445498814E-15   5.93656225283299E-25
     -5.11420445439448E-15   2.61424401539629E-15
      3.63826268505662E-01
     -9.04343287358449E-02  -9.04343287358449E-02   0.00000000000000E+00   0.00000000000000E+00   4.08400573550632E-36
     -4.08400573550632E-36   0.00000000000000E+00  -1.51875467162401E-16   0.00000000000000E+00   0.00000000000000E+00
      0.00000000000000E+00   0.00000000000000E+00  -1.03965548879366E-20  -9.39947340280448E-15  -9.39948379935937E-15
     -6.68653716969283E-15   1.00000000000000E+00   1.00000000000000E+00   0.00000000000000E+00   0.00000000000000E+00
      2.25969882657773E-13   8.56284542145414E-21   2.25969891220619E-13   4.28470884263761E-15   0.00000000000000E+00
      0.00000000000000E+00   0.00000000000000E+00   0.00000000000000E+00  -2.16570407421259E-13  -5.74118653685518E-28
     -2.16570407421260E-13   2.55370379421762E-15
      4.00000000000000E-01
      0.00000000000000E+00   0.00000000000000E+00   0.00000000000000E+00   0.00000000000000E+00   4.04165491941926E-36
     -4.04165491941926E-36   0.00000000000000E+00  -6.98643291648399E-17   0.00000000000000E+00   0.00000000000000E+00
      0.00000000000000E+00   0.00000000000000E+00   9.37048141563620E-21  -9.37787264508801E-15  -9.37786327460660E-15
     -6.70131639821797E-15   1.00000000000000E+00   1.00000000000000E+00   0.00000000000000E+00   0.00000000000000E+00
      1.96151201905538E-12   8.56285543614449E-21   1.96151202761823E-12   4.25221479730334E-15   0.00000000000000E+00
      0.00000000000000E+00   0.00000000000000E+00   0.00000000000000E+00  -1.95213416434363E-12   2.63546671860801E-27
     -1.95213416434363E-12   2.51896593007947E-15
      4.75314996836681E-01
      1.88287492091703E-01   1.88287492091703E-01   0.00000000000000E+00   0.00000000000000E+00   4.07035226092543E-36
     -4.07035226092543E-36   0.00000000000000E+00   1.00927174708812E-16   0.00000000000000E+00   0.00000000000000E+00
      0.00000000000000E+00   0.00000000000000E+00  -4.18586137472165E-20  -9.33124113993624E-15  -9.33128299854998E-15
     -6.73086278454385E-15   1.00000000000000E+00   1.00000000000000E+00   0.00000000000000E+00   0.00000000000000E+00
      1.98492040146632E-10   8.56287617769265E-21   1.98492040155195E-10   4.18392527804214E-15   0.00000000000000E+00
      0.00000000000000E+00   0.00000000000000E+00   0.00000000000000E+00  -1.98482708872197E-10  -8.68736655485974E-27
     -1.98482708872197E-10   2.44601033179290E-15
      5.00000000000000E-01
      2.50000000000000E-01   2.50000000000000E-01   0.00000000000000E+00   0.00000000000000E+00   3.98125333214010E-36
     -3.98125333214010E-36   0.00000000000000E+00   1.56943490791476E-16   0.00000000000000E+00   0.00000000000000E+00
      0.00000000000000E+00   0.00000000000000E+00   5.21554020690455E-20  -9.31846873698172E-15  -9.31841658157965E-15
     -6.74036138105177E-15   1.00000000000000E+00   1.00000000000000E+00   0.00000000000000E+00   0.00000000000000E+00
      9.08340771532103E-10   8.56288330060519E-21   9.08340771540666E-10   4.16137930755889E-15   0.00000000000000E+00
      0.00000000000000E+00   0.00000000000000E+00   0.00000000000000E+00  -9.08331453124087E-10   2.09554864946392E-27
     -9.08331453124087E-10   2.42203858270139E-15
      5.45188998102009E-01
      3.62972495255022E-01   3.62972495255022E-01   0.00000000000000E+00   0.00000000000000E+00   4.00395631088513E-36
     -4.00395631088513E-36   0.00000000000000E+00   2.59621662539324E-16   0.00000000000000E+00   0.00000000000000E+00
      0.00000000000000E+00   0.00000000000000E+00   2.28196802693044E-20  -9.29782547416930E-15  -9.29780265448903E-15
     -6.75791682680301E-15   1.00000000000000E+00   1.00000000000000E+00   0.00000000000000E+00   0.00000000000000E+00
      1.46516219463092E-08   8.56289810765154E-21   1.46516219463177E-08   4.11992245187617E-15   0.00000000000000E+00
      0.00000000000000E+00   0.00000000000000E+00   0.00000000000000E+00  -1.46516126485151E-08   1.18575915032792E-26
     -1.46516126485151E-08   2.37837271238753E-15
      6.00000000000000E-01
      5.00000000000000E-01   5.00000000000000E-01   0.00000000000000E+00   0.00000000000000E+00   4.03194388833537E-36
     -4.03194388833537E-36   0.00000000000000E+00   3.85057583239734E-16   0.00000000000000E+00   0.00000000000000E+00
      0.00000000000000E+00   0.00000000000000E+00  -3.86998120913124E-17  -9.29006699750129E-15  -9.32876680959260E-15
     -6.78104984227067E-15   1.00000000000000E+00   1.00000000000000E+00   0.00000000000000E+00   0.00000000000000E+00
      3.97863767185844E-07   8.56297663845178E-21   3.97863767185852E-07   4.06930004957042E-15   0.00000000000000E+00
      0.00000000000000E+00   0.00000000000000E+00   0.00000000000000E+00  -3.97863757857088E-07  -8.34088476099182E-27
     -3.97863757857088E-07   2.32669220946052E-15
      6.55130577684451E-01
      6.37826444211127E-01   6.37826444211127E-01   0.00000000000000E+00   0.00000000000000E+00   4.01314401936454E-36
     -4.01314401936454E-36   0.00000000000000E+00   5.16000544958625E-16   0.00000000000000E+00   0.00000000000000E+00
      0.00000000000000E+00   0.00000000000000E+00   4.00395448713096E-19  -9.33614401464820E-15  -9.33574361919948E-15
     -6.81211056605862E-15   1.00000000000000E+00   1.00000000000000E+00   0.00000000000000E+00   0.00000000000000E+00
      6.60138105948624E-06   8.56401692983143E-21   6.60138105948625E-06   4.01712383780983E-15   0.00000000000000E+00
      0.00000000000000E+00   0.00000000000000E+00   0.00000000000000E+00  -6.60138105015056E-06  -3.50231786750916E-26
     -6.60138105015056E-06   2.27898618329015E-15
      6.77565288842225E-01
      6.93913222105563E-01   6.93913222105563E-01   0.00000000000000E+00   0.00000000000000E+00   6.22471375790708E-36
     -6.22471375790708E-36   0.00000000000000E+00   5.72140521277645E-16   0.00000000000000E+00   0.00000000000000E+00
      0.00000000000000E+00   0.00000000000000E+00  -1.41342567304952E-12  -9.38024846688749E-15  -1.42280592151641E-12
     -6.82885361509050E-15   1.00000000000000E+00   1.00000000000000E+00   0.00000000000000E+00   0.00000000000000E+00
      1.47435505568637E-05   8.56536785193469E-21   1.47435505568637E-05   3.99486068743744E-15   0.00000000000000E+00
      0.00000000000000E+00   0.00000000000000E+00   0.00000000000000E+00  -1.47435491340579E-05  -1.12366436539135E-25
     -1.47435491340579E-05   2.26185240637543E-15
      7.00000000000000E-01
      7.50000000000000E-01   7.50000000000000E-01   0.00000000000000E+00   0.00000000000000E+00   6.43282939088228E-36
     -6.43282939088228E-36   0.00000000000000E+00   6.29888769775749E-16   0.00000000000000E+00   0.00000000000000E+00
      0.00000000000000E+00   0.00000000000000E+00  -1.53760953450009E-18  -9.43750887164405E-15  -9.43904648117854E-15
     -6.84782471871961E-15   1.00000000000000E+00   1.00000000000000E+00   0.00000000000000E+00   0.00000000000000E+00
      2.71319079789377E-05   8.56742294623343E-21   2.71319079789377E-05   3.97182818139408E-15   0.00000000000000E+00
      0.00000000000000E+00   0.00000000000000E+00   0.00000000000000E+00  -2.71319079694988E-05  -2.52573220275731E-25
     -2.71319079694988E-05   2.24610776754978E-15
      7.27819041835641E-01
      8.19547604589101E-01   8.19547604589101E-01   0.00000000000000E+00   0.00000000000000E+00   4.16822461911436E-36
     -4.16822461911436E-36   0.00000000000000E+00   7.03163136214656E-16   0.00000000000000E+00   0.00000000000000E+00
      0.00000000000000E+00   0.00000000000000E+00  -1.87515601576935E-18  -9.51636422407806E-15  -9.51823938009383E-15
     -6.87365682769345E-15   1.00000000000000E+00   1.00000000000000E+00   0.00000000000000E+00   0.00000000000000E+00
      4.76009673122082E-05   8.57081624545639E-21   4.76009673122082E-05   3.94232677481658E-15   0.00000000000000E+00
      0.00000000000000E+00   0.00000000000000E+00   0.00000000000000E+00  -4.76009673026900E-05  -4.24619358369806E-25
     -4.76009673026900E-05   2.22816691666222E-15
      7.62314653711835E-01
      9.05786634279587E-01   9.05786634279587E-01   0.00000000000000E+00   0.00000000000000E+00   4.18541790087674E-36
     -4.18541790087674E-36   0.00000000000000E+00   7.95752764996249E-16   0.00000000000000E+00   0.00000000000000E+00
      0.00000000000000E+00   0.00000000000000E+00   9.83416213595960E-19  -9.61122496414529E-15  -9.61024154793169E-15
     -6.90809928378373E-15   1.00000000000000E+00   1.00000000000000E+00   0.00000000000000E+00   0.00000000000000E+00
      7.89185364438014E-05   8.57600981433727E-21   7.89185364438015E-05   3.90461190795128E-15   0.00000000000000E+00
      0.00000000000000E+00   0.00000000000000E+00   0.00000000000000E+00  -7.89185364341916E-05  -7.18382500705790E-25
     -7.89185364341916E-05   2.20773461083620E-15
      8.00000000000000E-01
      1.00000000000000E+00   1.00000000000000E+00   0.00000000000000E+00   0.00000000000000E+00   1.68075733617476E-34
     -1.68075733617476E-34   0.00000000000000E+00   8.98309460094346E-16   0.00000000000000E+00   0.00000000000000E+00
      0.00000000000000E+00   0.00000000000000E+00   5.80974078998639E-13  -9.70033435495796E-15   5.71273744643681E-13
     -6.94770437956959E-15   1.00000000000000E+00   1.00000000000000E+00   0.00000000000000E+00   0.00000000000000E+00
      1.18346969836465E-04   8.58255290410763E-21   1.18346969836465E-04   3.86235566103493E-15   0.00000000000000E+00
      0.00000000000000E+00   0.00000000000000E+00   0.00000000000000E+00  -1.18346970407739E-04  -2.60148744762901E-24
     -1.18346970407739E-04   2.18703925844031E-15
      8.42774558726481E-01
      1.10693639681620E+00   1.10693639681620E+00   0.00000000000000E+00   0.00000000000000E+00   3.40357309128379E-34
     -3.40357309128379E-34   0.00000000000000E+00   1.01584115180674E-15   0.00000000000000E+00   0.00000000000000E+00
      0.00000000000000E+00   0.00000000000000E+00   1.00335916692672E-13  -9.77985850540238E-15   9.05560581872696E-14
     -6.99427761550502E-15   1.00000000000000E+00   1.00000000000000E+00   0.00000000000000E+00   0.00000000000000E+00
      1.67431650364083E-04   8.59070877568981E-21   1.67431650364083E-04   3.81345658023827E-15   0.00000000000000E+00
      0.00000000000000E+00   0.00000000000000E+00   0.00000000000000E+00  -1.67431650454639E-04  -1.86611008990932E-24
     -1.67431650454639E-04   2.16497988346004E-15
      8.96670502721847E-01
      1.24167625680462E+00   1.24167625680462E+00   0.00000000000000E+00   0.00000000000000E+00   8.55527432849230E-36
     -8.55527432849230E-36   0.00000000000000E+00   1.16498145612292E-15   0.00000000000000E+00   0.00000000000000E+00
      0.00000000000000E+00   0.00000000000000E+00   2.93298659427947E-18  -9.85225640125925E-15  -9.84932341466497E-15
     -7.05459276302763E-15   1.00000000000000E+00   1.00000000000000E+00   0.00000000000000E+00   0.00000000000000E+00
      2.33269853191362E-04   8.60166739574050E-21   2.33269853191362E-04   3.75094697043665E-15   0.00000000000000E+00
      0.00000000000000E+00   0.00000000000000E+00   0.00000000000000E+00  -2.33269853181512E-04  -2.06570563973549E-24
     -2.33269853181512E-04   2.13866433646807E-15
      9.00000000000000E-01
      1.25000000000000E+00   1.25000000000000E+00   0.00000000000000E+00   0.00000000000000E+00   3.38278514685432E-33