DF-ISE text

Info {
  version   = 1.0
  type      = xyplot
  datasets  = [
    "time"
    "gate OuterVoltage" "gate InnerVoltage" "gate QuasiFermiPotential" "gate DisplacementCurrent" "gate eCurrent"
    "gate hCurrent" "gate TotalCurrent" "gate Charge" "substrate OuterVoltage" "substrate InnerVoltage"
    "substrate QuasiFermiPotential" "substrate DisplacementCurrent" "substrate eCurrent" "substrate hCurrent" "substrate TotalCurrent"
    "substrate Charge" "drain OuterVoltage" "drain InnerVoltage" "drain QuasiFermiPotential" "drain DisplacementCurrent"
    "drain eCurrent" "drain hCurrent" "drain TotalCurrent" "drain Charge" "source OuterVoltage"
    "source InnerVoltage" "source QuasiFermiPotential" "source DisplacementCurrent" "source eCurrent" "source hCurrent"
    "source TotalCurrent" "source Charge" ]
  functions = [
    Time
    OuterVoltage InnerVoltage QuasiFermiPotential DisplacementCurrent eCurrent
    hCurrent TotalCurrent Charge OuterVoltage InnerVoltage
    QuasiFermiPotential DisplacementCurrent eCurrent hCurrent TotalCurrent
    Charge OuterVoltage InnerVoltage QuasiFermiPotential DisplacementCurrent
    eCurrent hCurrent TotalCurrent Charge OuterVoltage
    InnerVoltage QuasiFermiPotential DisplacementCurrent eCurrent hCurrent
    TotalCurrent Charge ]
}

Data {
      0.00000000000000E+00
     -1.00000000000000E+00  -1.00000000000000E+00   0.00000000000000E+00   0.00000000000000E+00   4.13627625572838E-36
     -4.13627625572838E-36   0.00000000000000E+00  -9.70157671744493E-16   0.00000000000000E+00   0.00000000000000E+00
      0.00000000000000E+00   0.00000000000000E+00  -4.63434420452547E-20  -1.06932189560560E-15  -1.06936823904764E-15
     -2.28022833584545E-15   1.00000000000000E+00   1.00000000000000E+00   0.00000000000000E+00   0.00000000000000E+00
      1.48066714092418E-15   9.36054127155801E-21   1.48067650146545E-15   2.03354873350465E-15   0.00000000000000E+00
      0.00000000000000E+00   0.00000000000000E+00   0.00000000000000E+00  -4.11308262417636E-16  -1.69162887401348E-28
     -4.11308262417806E-16   1.21683727408530E-15
      1.00000000000000E-03
     -9.97500000000000E-01  -9.97500000000000E-01   0.00000000000000E+00   0.00000000000000E+00   4.13628502856282E-36
     -4.13628502856282E-36   0.00000000000000E+00  -9.68389043068796E-16   0.00000000000000E+00   0.00000000000000E+00
      0.00000000000000E+00   0.00000000000000E+00  -1.09975973009714E-19  -1.06926060555933E-15  -1.06937058153234E-15
     -2.28037489419099E-15   1.00000000000000E+00   1.00000000000000E+00   0.00000000000000E+00   0.00000000000000E+00
      1.50050844234235E-15   9.36054285313015E-21   1.50051780288521E-15   2.03276387228061E-15   0.00000000000000E+00
      0.00000000000000E+00   0.00000000000000E+00   0.00000000000000E+00  -4.31147221352625E-16  -2.40239662004974E-28
     -4.31147221352866E-16   1.21600006497917E-15
      2.28000000000000E-03
     -9.94300000000000E-01  -9.94300000000000E-01   0.00000000000000E+00   0.00000000000000E+00   4.15861362383675E-36
     -4.15861362383675E-36   0.00000000000000E+00  -9.66124986258087E-16   0.00000000000000E+00   0.00000000000000E+00
      0.00000000000000E+00   0.00000000000000E+00  -4.56820083478836E-20  -1.06918434503585E-15  -1.06923002704420E-15
     -2.28056224461487E-15   1.00000000000000E+00   1.00000000000000E+00   0.00000000000000E+00   0.00000000000000E+00
      1.52729074811367E-15   9.36054488025137E-21   1.52730010865855E-15   2.03175895166811E-15   0.00000000000000E+00
      0.00000000000000E+00   0.00000000000000E+00   0.00000000000000E+00  -4.58070081614541E-16   1.83930887411293E-28
     -4.58070081614357E-16   1.21492827920485E-15
      3.91840000000000E-03
     -9.90204000000000E-01  -9.90204000000000E-01   0.00000000000000E+00   0.00000000000000E+00   3.95029227971787E-36
     -3.95029227971787E-36   0.00000000000000E+00  -9.63226643415150E-16   0.00000000000000E+00   0.00000000000000E+00
      0.00000000000000E+00   0.00000000000000E+00   6.32497980270507E-20  -1.06909041500372E-15  -1.06902716520569E-15
     -2.28080165629367E-15   1.00000000000000E+00   1.00000000000000E+00   0.00000000000000E+00   0.00000000000000E+00
      1.56410885653615E-15   9.36054747407488E-21   1.56411821708363E-15   2.03047216413031E-15   0.00000000000000E+00
      0.00000000000000E+00   0.00000000000000E+00   0.00000000000000E+00  -4.95091051877946E-16   8.68104240762893E-30
     -4.95091051877937E-16   1.21355613557852E-15
      6.01555200000000E-03
     -9.84961120000000E-01  -9.84961120000000E-01   0.00000000000000E+00   0.00000000000000E+00   4.18170734220967E-36
     -4.18170734220967E-36   0.00000000000000E+00  -9.59516185651845E-16   0.00000000000000E+00   0.00000000000000E+00
      0.00000000000000E+00   0.00000000000000E+00  -1.14418990910111E-19  -1.06897641652870E-15  -1.06909083551961E-15
     -2.28110745985545E-15   1.00000000000000E+00   1.00000000000000E+00   0.00000000000000E+00   0.00000000000000E+00
      1.61588459621372E-15   9.36055079486261E-21   1.61589395676452E-15   2.02882427368125E-15   0.00000000000000E+00
      0.00000000000000E+00   0.00000000000000E+00   0.00000000000000E+00  -5.46803121245243E-16   3.36029243306709E-28
     -5.46803121244907E-16   1.21179937182604E-15
      8.69990656000000E-03
     -9.78250233600000E-01  -9.78250233600000E-01   0.00000000000000E+00   0.00000000000000E+00   4.10689764762250E-36
     -4.10689764762250E-36   0.00000000000000E+00  -9.54765840646851E-16   0.00000000000000E+00   0.00000000000000E+00
      0.00000000000000E+00   0.00000000000000E+00  -2.32597412412426E-20  -1.06884123280266E-15  -1.06886449254390E-15
     -2.28149784825406E-15   1.00000000000000E+00   1.00000000000000E+00   0.00000000000000E+00   0.00000000000000E+00
      1.69023696993062E-15   9.36055504654528E-21   1.69024633048567E-15   2.02671365747609E-15   0.00000000000000E+00
      0.00000000000000E+00   0.00000000000000E+00   0.00000000000000E+00  -6.21381837942130E-16   3.62718827586045E-28
     -6.21381837941768E-16   1.20955003142482E-15
      1.21358803968000E-02
     -9.69660299008000E-01  -9.69660299008000E-01   0.00000000000000E+00   0.00000000000000E+00   4.10373935445018E-36
     -4.10373935445018E-36   0.00000000000000E+00  -9.48683806890943E-16   0.00000000000000E+00   0.00000000000000E+00
      0.00000000000000E+00   0.00000000000000E+00  -2.88439517368115E-20  -1.06868688538113E-15  -1.06871572933287E-15
     -2.28199586958877E-15   1.00000000000000E+00   1.00000000000000E+00   0.00000000000000E+00   0.00000000000000E+00
      1.80111857958009E-15   9.36056049052514E-21   1.80112794014058E-15   2.02400990888278E-15   0.00000000000000E+00
      0.00000000000000E+00   0.00000000000000E+00   0.00000000000000E+00  -7.32412210807905E-16   1.89762174593421E-28
     -7.32412210807715E-16   1.20666976759692E-15
      1.65339269079040E-02
     -9.58665182730240E-01  -9.58665182730240E-01   0.00000000000000E+00   0.00000000000000E+00   4.09250522043582E-36
     -4.09250522043582E-36   0.00000000000000E+00  -9.40896154882452E-16   0.00000000000000E+00   0.00000000000000E+00
      0.00000000000000E+00   0.00000000000000E+00   3.85066000820052E-20  -1.06852234012408E-15  -1.06848383352400E-15
     -2.28263064859940E-15   1.00000000000000E+00   1.00000000000000E+00   0.00000000000000E+00   0.00000000000000E+00
      1.97349368354343E-15   9.36056746165240E-21   1.97350304411089E-15   2.02054556764522E-15   0.00000000000000E+00
      0.00000000000000E+00   0.00000000000000E+00   0.00000000000000E+00  -9.05019210586677E-16  -2.12558436231677E-28
     -9.05019210586889E-16   1.20298123583662E-15
      2.21634264421171E-02
     -9.44591433894707E-01  -9.44591433894707E-01   0.00000000000000E+00   0.00000000000000E+00   4.11399964217832E-36
     -4.11399964217832E-36   0.00000000000000E+00  -9.30923544906915E-16   0.00000000000000E+00   0.00000000000000E+00
      0.00000000000000E+00   0.00000000000000E+00  -5.19576478746328E-20  -1.06837060137630E-15  -1.06842255902418E-15
     -2.28343887646322E-15   1.00000000000000E+00   1.00000000000000E+00   0.00000000000000E+00   0.00000000000000E+00
      2.25665348574896E-15   9.36057638796205E-21   2.25666284632535E-15   2.01610540229181E-15   0.00000000000000E+00
      0.00000000000000E+00   0.00000000000000E+00   0.00000000000000E+00  -1.18824028730118E-15   2.98674476301338E-30
     -1.18824028730117E-15   1.19825701907834E-15
      2.93691858459099E-02
     -9.26577035385225E-01  -9.26577035385225E-01   0.00000000000000E+00   0.00000000000000E+00   4.10430235876528E-36
     -4.10430235876528E-36   0.00000000000000E+00  -9.18151233494840E-16   0.00000000000000E+00   0.00000000000000E+00
      0.00000000000000E+00   0.00000000000000E+00   1.07683984601049E-19  -1.06828061581875E-15  -1.06817293183415E-15
     -2.28446661085596E-15   1.00000000000000E+00   1.00000000000000E+00   0.00000000000000E+00   0.00000000000000E+00
      2.75669167751634E-15   9.36058781155346E-21   2.75670103810415E-15   2.01041248109370E-15   0.00000000000000E+00
      0.00000000000000E+00   0.00000000000000E+00   0.00000000000000E+00  -1.68852810626991E-15  -8.58574122491054E-29
     -1.68852810626999E-15   1.19220536325710E-15
      3.85925578827647E-02
     -9.03518605293088E-01  -9.03518605293088E-01   0.00000000000000E+00   0.00000000000000E+00   4.04975118667769E-36
     -4.04975118667769E-36   0.00000000000000E+00  -9.01790367923803E-16   0.00000000000000E+00   0.00000000000000E+00
      0.00000000000000E+00   0.00000000000000E+00   3.87093847443316E-19  -1.06834440330296E-15  -1.06795730945552E-15
     -2.28577143232183E-15   1.00000000000000E+00   1.00000000000000E+00   0.00000000000000E+00   0.00000000000000E+00
      3.72600056363893E-15   9.36060239551224E-21   3.72600992424132E-15   2.00311001668166E-15   0.00000000000000E+00
      0.00000000000000E+00   0.00000000000000E+00   0.00000000000000E+00  -2.65805261478571E-15  -9.16271350426011E-29
     -2.65805261478581E-15   1.18445178356398E-15
      5.03984740899388E-02
     -8.74003814775153E-01  -8.74003814775153E-01   0.00000000000000E+00   0.00000000000000E+00   4.11660637504309E-36
     -4.11660637504309E-36   0.00000000000000E+00  -8.80827947397164E-16   0.00000000000000E+00   0.00000000000000E+00
      0.00000000000000E+00   0.00000000000000E+00   3.89874333646353E-18  -1.06871263079311E-15  -1.06481388745665E-15
     -2.28742501682240E-15   1.00000000000000E+00   1.00000000000000E+00   0.00000000000000E+00   0.00000000000000E+00
      5.84714586786284E-15   9.36062085888885E-21   5.84715522848370E-15   1.99373764583164E-15   0.00000000000000E+00
      0.00000000000000E+00   0.00000000000000E+00   0.00000000000000E+00  -4.78234134102701E-15  -2.52667437576198E-29
     -4.78234134102704E-15   1.17451531838792E-15
      6.55100468351217E-02
     -8.36224882912196E-01  -8.36224882912196E-01   0.00000000000000E+00   0.00000000000000E+00   4.08887204069942E-36
     -4.08887204069942E-36   0.00000000000000E+00  -8.53962031027248E-16   0.00000000000000E+00   0.00000000000000E+00
      0.00000000000000E+00   0.00000000000000E+00   2.67572505870180E-16  -1.06957507399128E-15  -8.02002568121095E-16
     -2.28951622994918E-15   1.00000000000000E+00   1.00000000000000E+00   0.00000000000000E+00   0.00000000000000E+00
      1.12826061937533E-14   9.36064359521221E-21   1.12826155543969E-14   1.98170041751369E-15   0.00000000000000E+00
      0.00000000000000E+00   0.00000000000000E+00   0.00000000000000E+00  -1.04806129862761E-14   2.50051791792244E-28
     -1.04806129862758E-14   1.16177784346274E-15
      8.48528599489558E-02
     -7.87867850127611E-01  -7.87867850127611E-01   0.00000000000000E+00   0.00000000000000E+00   4.01387614999634E-36
     -4.01387614999634E-36   0.00000000000000E+00  -8.19517784233509E-16   0.00000000000000E+00   0.00000000000000E+00
      0.00000000000000E+00   0.00000000000000E+00   4.57388046059904E-15  -1.07099228155946E-15   3.50288817903957E-15
     -2.29215498118144E-15   1.00000000000000E+00   1.00000000000000E+00   0.00000000000000E+00   0.00000000000000E+00
      2.84005305794592E-14   9.36066970731391E-21   2.84005399401289E-14   1.96622835571756E-15   0.00000000000000E+00
      0.00000000000000E+00   0.00000000000000E+00   0.00000000000000E+00  -3.19034281191685E-14   3.67424824450451E-29
     -3.19034281191685E-14   1.14544440969738E-15
      1.00000000000000E-01
     -7.50000000000000E-01  -7.50000000000000E-01   0.00000000000000E+00   0.00000000000000E+00   4.15052460196490E-36
     -4.15052460196490E-36   0.00000000000000E+00  -7.92501492763197E-16   0.00000000000000E+00   0.00000000000000E+00
      0.00000000000000E+00   0.00000000000000E+00   2.25656590459215E-15  -1.07200274132743E-15   1.18456316326472E-15
     -2.29419443607011E-15   1.00000000000000E+00   1.00000000000000E+00   0.00000000000000E+00   0.00000000000000E+00
      6.06408802055754E-14   9.36069872727995E-21   6.06408895662741E-14   1.95406404320756E-15   0.00000000000000E+00
      0.00000000000000E+00   0.00000000000000E+00   0.00000000000000E+00  -6.18254527295385E-14  -4.64080950657355E-28
     -6.18254527295390E-14   1.13263188562576E-15
      1.24758800785708E-01
     -6.88102998035731E-01  -6.88102998035731E-01   0.00000000000000E+00   0.00000000000000E+00   4.00404549584221E-36
     -4.00404549584221E-36   0.00000000000000E+00  -7.48261811067003E-16   0.00000000000000E+00   0.00000000000000E+00
      0.00000000000000E+00   0.00000000000000E+00   1.06873940014076E-19  -1.07259314896583E-15  -1.07248627502581E-15
     -2.29748337033912E-15   1.00000000000000E+00   1.00000000000000E+00   0.00000000000000E+00   0.00000000000000E+00
      2.16519632994924E-13   9.36074010492546E-21   2.16519642355665E-13   1.93409504779509E-15   0.00000000000000E+00
      0.00000000000000E+00   0.00000000000000E+00   0.00000000000000E+00  -2.15447156080640E-13   2.20437899012363E-28
     -2.15447156080639E-13   1.11165013361102E-15
      1.55954889775699E-01
     -6.10112775560752E-01  -6.10112775560752E-01   0.00000000000000E+00   0.00000000000000E+00   4.11464787103639E-36
     -4.11464787103639E-36   0.00000000000000E+00  -6.92383772926993E-16   0.00000000000000E+00   0.00000000000000E+00
      0.00000000000000E+00   0.00000000000000E+00   3.32413043064506E-20  -1.06913960069713E-15  -1.06910635939283E-15
     -2.30156166737147E-15   1.00000000000000E+00   1.00000000000000E+00   0.00000000000000E+00   0.00000000000000E+00
      1.10761659384452E-12   9.36079023564328E-21   1.10761660320531E-12   1.90879494716456E-15   0.00000000000000E+00
      0.00000000000000E+00   0.00000000000000E+00   0.00000000000000E+00  -1.10654749684591E-12   2.22276729772848E-28
     -1.10654749684591E-12   1.08515049313390E-15
      1.95261961903089E-01
     -5.11845095242278E-01  -5.11845095242278E-01   0.00000000000000E+00   0.00000000000000E+00   4.11595105711529E-36
     -4.11595105711529E-36   0.00000000000000E+00  -6.21774275821797E-16   0.00000000000000E+00   0.00000000000000E+00
      0.00000000000000E+00   0.00000000000000E+00  -2.48063628480117E-20  -1.05953168159544E-15  -1.05955648795829E-15
     -2.30662549687966E-15   1.00000000000000E+00   1.00000000000000E+00   0.00000000000000E+00   0.00000000000000E+00
      8.84790029867529E-12   9.36085363878539E-21   8.84790030803614E-12   1.87672110075966E-15   0.00000000000000E+00
      0.00000000000000E+00   0.00000000000000E+00   0.00000000000000E+00  -8.84684075154820E-12  -1.98053035407496E-28
     -8.84684075154820E-12   1.05167867194181E-15
      2.00000000000000E-01
     -5.00000000000000E-01  -5.00000000000000E-01   0.00000000000000E+00   0.00000000000000E+00   4.08137996721681E-36
     -4.08137996721681E-36   0.00000000000000E+00  -6.13248503292226E-16   0.00000000000000E+00   0.00000000000000E+00
      0.00000000000000E+00   0.00000000000000E+00   9.39818329120841E-17  -1.05844313373090E-15  -9.64461300818814E-16
     -2.30723221103934E-15   1.00000000000000E+00   1.00000000000000E+00   0.00000000000000E+00   0.00000000000000E+00
      1.13765102027743E-11   9.36086130264150E-21   1.13765102121352E-11   1.87284158070781E-15   0.00000000000000E+00
      0.00000000000000E+00   0.00000000000000E+00   0.00000000000000E+00  -1.13755457508343E-11   3.24747340732178E-29
     -1.13755457508343E-11   1.04763913362374E-15
      2.48740769437963E-01
     -3.78148076405093E-01  -3.78148076405093E-01   0.00000000000000E+00   0.00000000000000E+00   4.11342096262057E-36
     -4.11342096262057E-36   0.00000000000000E+00  -5.25370015525750E-16   0.00000000000000E+00   0.00000000000000E+00
      0.00000000000000E+00   0.00000000000000E+00  -2.03493242351971E-19  -1.04951129223005E-15  -1.04971478547240E-15
     -2.31346534501705E-15   1.00000000000000E+00   1.00000000000000E+00   0.00000000000000E+00   0.00000000000000E+00
      1.51626579742843E-10   9.36093941738905E-21   1.51626579752203E-10   1.83278360742389E-15   0.00000000000000E+00
      0.00000000000000E+00   0.00000000000000E+00   0.00000000000000E+00  -1.51625530037418E-10  -1.84864344562616E-28
     -1.51625530037418E-10   1.00605175311891E-15
      3.00000000000000E-01
     -2.50000000000000E-01  -2.50000000000000E-01   0.00000000000000E+00   0.00000000000000E+00   4.02022816331668E-36
     -4.02022816331668E-36   0.00000000000000E+00  -4.32620872788922E-16   0.00000000000000E+00   0.00000000000000E+00
      0.00000000000000E+00   0.00000000000000E+00  -7.82347551952896E-20  -1.04234285044081E-15  -1.04242108519600E-15
     -2.32012406257928E-15   1.00000000000000E+00   1.00000000000000E+00   0.00000000000000E+00   0.00000000000000E+00
      2.29528395114065E-09   9.36102185253351E-21   2.29528395115001E-09   1.79039622659973E-15   0.00000000000000E+00
      0.00000000000000E+00   0.00000000000000E+00   0.00000000000000E+00  -2.29528290872894E-09  -4.08365539111026E-28
     -2.29528290872894E-09   9.62348708768475E-16
      3.58488923325555E-01
     -1.03777691686111E-01  -1.03777691686111E-01   0.00000000000000E+00   0.00000000000000E+00   4.07598796890921E-36
     -4.07598796890921E-36   0.00000000000000E+00  -3.26342879253299E-16   0.00000000000000E+00   0.00000000000000E+00
      0.00000000000000E+00   0.00000000000000E+00   1.66796984326815E-18  -1.03674435736394E-15  -1.03507638752067E-15
     -2.32823806836066E-15   1.00000000000000E+00   1.00000000000000E+00   0.00000000000000E+00   0.00000000000000E+00
      4.88794286442655E-08   9.36112249418547E-21   4.88794286442748E-08   1.74175973070963E-15   0.00000000000000E+00
      0.00000000000000E+00   0.00000000000000E+00   0.00000000000000E+00  -4.88794276091987E-08  -1.08761973264306E-28
     -4.88794276091987E-08   9.12821216904311E-16
      4.00000000000000E-01
      0.00000000000000E+00   0.00000000000000E+00   0.00000000000000E+00   0.00000000000000E+00   4.04568445221552E-36
     -4.04568445221552E-36   0.00000000000000E+00  -2.50463529088546E-16   0.00000000000000E+00   0.00000000000000E+00
      0.00000000000000E+00   0.00000000000000E+00   2.23396857066877E-18  -1.03499008571180E-15  -1.03275611714113E-15
     -2.33488358792281E-15   1.00000000000000E+00   1.00000000000000E+00   0.00000000000000E+00   0.00000000000000E+00
      3.99112115690518E-07   9.36124665206977E-21   3.99112115690527E-07   1.70710923163095E-15   0.00000000000000E+00
      0.00000000000000E+00   0.00000000000000E+00   0.00000000000000E+00  -3.99112114657773E-07  -2.78674287391530E-27
     -3.99112114657773E-07   8.78237885380428E-16
      4.71356486457178E-01
      1.78391216142944E-01   1.78391216142944E-01   0.00000000000000E+00   0.00000000000000E+00   4.01482361007862E-36
     -4.01482361007862E-36   0.00000000000000E+00  -1.16868125823142E-16   0.00000000000000E+00   0.00000000000000E+00
      0.00000000000000E+00   0.00000000000000E+00  -1.59561560375563E-18  -1.03725695318891E-15  -1.03885256879266E-15
     -2.35253150309318E-15   1.00000000000000E+00   1.00000000000000E+00   0.00000000000000E+00   0.00000000000000E+00
      8.85483541687469E-06   9.36275655258940E-21   8.85483541687469E-06   1.64773194062595E-15   0.00000000000000E+00
      0.00000000000000E+00   0.00000000000000E+00   0.00000000000000E+00  -8.85483541583588E-06  -6.22684676867224E-26
     -8.85483541583588E-06   8.21667688290375E-16
      5.00000000000000E-01
      2.50000000000000E-01   2.50000000000000E-01   0.00000000000000E+00   0.00000000000000E+00   4.03524996805581E-36
     -4.03524996805581E-36   0.00000000000000E+00  -6.06461904296809E-17   0.00000000000000E+00   0.00000000000000E+00
      0.00000000000000E+00   0.00000000000000E+00  -1.76798486709094E-18  -1.04043159960537E-15  -1.04219958447246E-15
     -2.36430339940794E-15   1.00000000000000E+00   1.00000000000000E+00   0.00000000000000E+00   0.00000000000000E+00
      2.11496226056382E-05   9.36483189730234E-21   2.11496226056382E-05   1.62429996218379E-15   0.00000000000000E+00
      0.00000000000000E+00   0.00000000000000E+00   0.00000000000000E+00  -2.11496226045961E-05  -1.49298487865011E-25
     -2.11496226045961E-05   8.00649627653839E-16
      5.35678243228589E-01
      3.39195608071472E-01   3.39195608071472E-01   0.00000000000000E+00   0.00000000000000E+00   3.97797270176857E-36
     -3.97797270176857E-36   0.00000000000000E+00   1.18084098766440E-17   0.00000000000000E+00   0.00000000000000E+00
      0.00000000000000E+00   0.00000000000000E+00  -1.75797810518312E-17  -1.04589049019382E-15  -1.06347027124566E-15
     -2.38316968576418E-15   1.00000000000000E+00   1.00000000000000E+00   0.00000000000000E+00   0.00000000000000E+00
      4.61356601019030E-05   9.36901539729710E-21   4.61356601019030E-05   1.59558350302474E-15   0.00000000000000E+00
      0.00000000000000E+00   0.00000000000000E+00   0.00000000000000E+00  -4.61356601008395E-05  -3.24775068183614E-25
     -4.61356601008395E-05   7.75777772862798E-16
      5.79919264832039E-01
      4.49798162080097E-01   4.49798162080097E-01   0.00000000000000E+00   0.00000000000000E+00   4.05144247453590E-36
     -4.05144247453590E-36   0.00000000000000E+00   1.04432346842191E-16   0.00000000000000E+00   0.00000000000000E+00
      0.00000000000000E+00   0.00000000000000E+00  -5.29305855858752E-18  -1.05365915376645E-15  -1.05895221232503E-15
     -2.41137063181633E-15   1.00000000000000E+00   1.00000000000000E+00   0.00000000000000E+00   0.00000000000000E+00
      8.88706962477005E-05   9.37615011717884E-21   8.88706962477005E-05   1.56056299623470E-15   0.00000000000000E+00
      0.00000000000000E+00   0.00000000000000E+00   0.00000000000000E+00  -8.88706962466417E-05  -6.26671159364760E-25
     -8.88706962466417E-05   7.46375288739439E-16
      6.00000000000000E-01
      5.00000000000000E-01   5.00000000000000E-01   0.00000000000000E+00   0.00000000000000E+00   4.00132505492328E-36
     -4.00132505492328E-36   0.00000000000000E+00   1.47182046231299E-16   0.00000000000000E+00   0.00000000000000E+00
      0.00000000000000E+00   0.00000000000000E+00   4.97997995774451E-16  -1.05725022631080E-15  -5.59252230536345E-16
     -2.42541156820103E-15   1.00000000000000E+00   1.00000000000000E+00   0.00000000000000E+00   0.00000000000000E+00
      1.11348733024243E-04   9.37990028051959E-21   1.11348733024243E-04   1.54482827092962E-15   0.00000000000000E+00
      0.00000000000000E+00   0.00000000000000E+00   0.00000000000000E+00  -1.11348733023684E-04  -7.85413062776886E-25
     -1.11348733023684E-04   7.33401251040107E-16
      6.54858866788278E-01
      6.37147166970695E-01   6.37147166970695E-01   0.00000000000000E+00   0.00000000000000E+00   5.27676962234303E-36
     -5.27676962234303E-36   0.00000000000000E+00   2.65452980986356E-16   0.00000000000000E+00   0.00000000000000E+00
      0.00000000000000E+00   0.00000000000000E+00   1.57817709234328E-13  -1.06672604868897E-15   1.56750983185639E-13
     -2.46645651765928E-15   1.00000000000000E+00   1.00000000000000E+00   0.00000000000000E+00   0.00000000000000E+00
      1.79291408043220E-04   9.39124064716023E-21   1.79291408043220E-04   1.50221541579988E-15   0.00000000000000E+00
      0.00000000000000E+00   0.00000000000000E+00   0.00000000000000E+00  -1.79291408199971E-04  -1.26703725311608E-24
     -1.79291408199971E-04   6.98788120873050E-16
      7.00000000000000E-01
      7.50000000000000E-01   7.50000000000000E-01   0.00000000000000E+00   0.00000000000000E+00   6.32131170210795E-36
     -6.32131170210795E-36   0.00000000000000E+00   3.63872203976215E-16   0.00000000000000E+00   0.00000000000000E+00
      0.00000000000000E+00   0.00000000000000E+00   2.64059406503223E-18  -1.07393132986178E-15  -1.07129073579674E-15
     -2.50233623968405E-15   1.00000000000000E+00   1.00000000000000E+00   0.00000000000000E+00   0.00000000000000E+00
      2.40065030583268E-04   9.40139586998740E-21   2.40065030583268E-04   1.46747177409322E-15   0.00000000000000E+00
      0.00000000000000E+00   0.00000000000000E+00   0.00000000000000E+00  -2.40065030582197E-04  -1.69603990391115E-24
     -2.40065030582197E-04   6.70992261614611E-16
      7.69122172153230E-01
      9.22805430383076E-01   9.22805430383076E-01   0.00000000000000E+00   0.00000000000000E+00   4.13561522911093E-36
     -4.13561522911093E-36   0.00000000000000E+00   5.15694132681965E-16   0.00000000000000E+00   0.00000000000000E+00
      0.00000000000000E+00   0.00000000000000E+00   1.26544970961160E-18  -1.08382017635371E-15  -1.08255472664410E-15
     -2.55971521205325E-15   1.00000000000000E+00   1.00000000000000E+00   0.00000000000000E+00   0.00000000000000E+00
      3.38076251763413E-04   9.41780092582144E-21   3.38076251763413E-04   1.41471892254520E-15   0.00000000000000E+00
      0.00000000000000E+00   0.00000000000000E+00   0.00000000000000E+00  -3.38076251762331E-04  -2.39222846050882E-24
     -3.38076251762331E-04   6.29302156826076E-16
      8.00000000000000E-01
      1.00000000000000E+00   1.00000000000000E+00   0.00000000000000E+00   0.00000000000000E+00   4.11841543629015E-36
     -4.11841543629015E-36   0.00000000000000E+00   5.83781795534574E-16   0.00000000000000E+00   0.00000000000000E+00
      0.00000000000000E+00   0.00000000000000E+00  -4.73834600685095E-19  -1.08781665758571E-15  -1.08829049218639E-15
     -2.58604812496411E-15   1.00000000000000E+00   1.00000000000000E+00   0.00000000000000E+00   0.00000000000000E+00
      3.83035075909078E-04   9.42534046732296E-21   3.83035075909078E-04   1.39131290863454E-15   0.00000000000000E+00
      0.00000000000000E+00   0.00000000000000E+00   0.00000000000000E+00  -3.83035075907990E-04  -2.71195189986601E-24
     -3.83035075907990E-04   6.10953420795003E-16
      8.42164525013470E-01
      1.10541131253368E+00   1.10541131253368E+00   0.00000000000000E+00   0.00000000000000E+00   4.62074575700083E-36
     -4.62074575700083E-36   0.00000000000000E+00   6.76908228747048E-16   0.00000000000000E+00   0.00000000000000E+00
      0.00000000000000E+00   0.00000000000000E+00  -5.54553600909122E-18  -1.09289769803762E-15  -1.09844323404671E-15
     -2.62254260436690E-15   1.00000000000000E+00   1.00000000000000E+00   0.00000000000000E+00   0.00000000000000E+00
      4.45081261127077E-04   9.43576153257315E-21   4.45081261127077E-04   1.35950587716657E-15   0.00000000000000E+00
      0.00000000000000E+00   0.00000000000000E+00   0.00000000000000E+00  -4.45081261125978E-04  -3.15369230860224E-24
     -4.45081261125978E-04   5.86128498453296E-16
      8.95291826530443E-01
      1.23822956632611E+00   1.23822956632611E+00   0.00000000000000E+00   0.00000000000000E+00   4.33582081671585E-36
     -4.33582081671585E-36   0.00000000000000E+00   7.94375459085899E-16   0.00000000000000E+00   0.00000000000000E+00
      0.00000000000000E+00   0.00000000000000E+00  -5.00411478675994E-18  -1.09875869311005E-15  -1.10376280789681E-15
     -2.66924618638781E-15   1.00000000000000E+00   1.00000000000000E+00   0.00000000000000E+00   0.00000000000000E+00
      5.23782590568415E-04   9.44900740524188E-21   5.23782590568415E-04   1.31968640706638E-15   0.00000000000000E+00
      0.00000000000000E+00   0.00000000000000E+00   0.00000000000000E+00  -5.23782590567311E-04  -3.71589883943409E-24
     -5.23782590567311E-04   5.55184320235528E-16
      9.00000000000000E-01
      1.25000000000000E+00   1.25000000000000E+00   0.00000000000000E+00   0.00000000000000E+00  -5.65827631714013E-35
      5.65827631714013E-35   0.00000000000000E+00   8.04788241110626E-16   0.00000000000000E+00   0.00000000000000E+00
      0.00000000000000E+00   0.00000000000000E+00  -3.71624149084640E-16  -1.09925267976410E-15  -1.47087682884874E-15
     -2.67341849629623E-15   1.00000000000000E+00   1.00000000000000E+00   0.00000000000000E+00   0.00000000000000E+00
      5.30765763048475E-04   9.45018419741139E-21   5.30765763048475E-04   1.31617171229749E-15   0.00000000000000E+00
      0.00000000000000E+00   0.00000000000000E+00   0.00000000000000E+00  -5.30765763047004E-04  -3.76601099190046E-24
     -5.30765763047004E-04   5.52458542888109E-16
      9.65877853881046E-01
      1.41469463470262E+00   1.41469463470262E+00   0.00000000000000E+00   0.00000000000000E+00   5.08652106026186E-36
     -5.08652106026186E-36   0.00000000000000E+00   9.50465799779470E-16   0.00000000000000E+00   0.00000000000000E+00
      0.00000000000000E+00   0.00000000000000E+00   2.40972392934097E-18  -1.10580874013455E-15  -1.10339901620521E-15
     -2.73228588453798E-15   1.00000000000000E+00   1.00000000000000E+00   0.00000000000000E+00   0.00000000000000E+00
      6.28288010797400E-04   9.46664416470713E-21   6.28288010797400E-04   1.26724426215278E-15   0.00000000000000E+00
      0.00000000000000E+00   0.00000000000000E+00   0.00000000000000E+00  -6.28288010796298E-04  -4.46352059425970E-24
     -6.28288010796298E-04   5.14575822605724E-16
      1.00000000000000E+00
      1.50000000000000E+00   1.50000000000000E+00   0.00000000000000E+00   0.00000000000000E+00   2.82743980610966E-35