DF-ISE text

Info {
  version   = 1.0
  type      = xyplot
  datasets  = [
    "time"
    "gate OuterVoltage" "gate InnerVoltage" "gate QuasiFermiPotential" "gate DisplacementCurrent" "gate eCurrent"
    "gate hCurrent" "gate TotalCurrent" "gate Charge" "substrate OuterVoltage" "substrate InnerVoltage"
    "substrate QuasiFermiPotential" "substrate DisplacementCurrent" "substrate eCurrent" "substrate hCurrent" "substrate TotalCurrent"
    "substrate Charge" "drain OuterVoltage" "drain InnerVoltage" "drain QuasiFermiPotential" "drain DisplacementCurrent"
    "drain eCurrent" "drain hCurrent" "drain TotalCurrent" "drain Charge" "source OuterVoltage"
    "source InnerVoltage" "source QuasiFermiPotential" "source DisplacementCurrent" "source eCurrent" "source hCurrent"
    "source TotalCurrent" "source Charge" ]
  functions = [
    Time
    OuterVoltage InnerVoltage QuasiFermiPotential DisplacementCurrent eCurrent
    hCurrent TotalCurrent Charge OuterVoltage InnerVoltage
    QuasiFermiPotential DisplacementCurrent eCurrent hCurrent TotalCurrent
    Charge OuterVoltage InnerVoltage QuasiFermiPotential DisplacementCurrent
    eCurrent hCurrent TotalCurrent Charge OuterVoltage
    InnerVoltage QuasiFermiPotential DisplacementCurrent eCurrent hCurrent
    TotalCurrent Charge ]
}

Data {
      0.00000000000000E+00
      1.00000000000000E+00   1.00000000000000E+00   0.00000000000000E+00   0.00000000000000E+00   1.25859553687307E-36
     -1.25859553687307E-36   0.00000000000000E+00   9.74610430546870E-16   0.00000000000000E+00   0.00000000000000E+00
      0.00000000000000E+00   0.00000000000000E+00   8.86942906230643E-15   1.47933198546201E-19   8.86957699550497E-15
      3.54082127081667E-15  -1.00000000000000E+00  -1.00000000000000E+00   0.00000000000000E+00   0.00000000000000E+00
      3.09468004252144E-21  -6.27902926483843E-12  -6.27902926174375E-12  -2.79405119696510E-15   0.00000000000000E+00
      0.00000000000000E+00   0.00000000000000E+00   0.00000000000000E+00   1.41537242560392E-28   6.27015968474824E-12
      6.27015968474824E-12  -1.72138050439845E-15
      1.00000000000000E-03
      9.97500000000000E-01   9.97500000000000E-01   0.00000000000000E+00   0.00000000000000E+00   1.24765494484578E-36
     -1.24765494484578E-36   0.00000000000000E+00   9.73002937865241E-16   0.00000000000000E+00   0.00000000000000E+00
      0.00000000000000E+00   0.00000000000000E+00   8.86738489466788E-15  -1.53860634967151E-19   8.86723103403292E-15
      3.54089632683972E-15  -1.00000000000000E+00  -1.00000000000000E+00   0.00000000000000E+00   0.00000000000000E+00
     -6.35873465246183E-21  -6.48393208027246E-12  -6.48393208663119E-12  -2.79328497264575E-15   0.00000000000000E+00
      0.00000000000000E+00   0.00000000000000E+00   0.00000000000000E+00   2.38833490269025E-28   6.47506485559716E-12
      6.47506485559716E-12  -1.72061429205922E-15
      2.28000000000000E-03
      9.94300000000000E-01   9.94300000000000E-01   0.00000000000000E+00   0.00000000000000E+00   1.70054361729253E-36
     -1.70054361729253E-36   0.00000000000000E+00   9.70945355350056E-16   0.00000000000000E+00   0.00000000000000E+00
      0.00000000000000E+00   0.00000000000000E+00   8.86475061338171E-15  -4.11968782166685E-17   8.82355373516504E-15
      3.54099240406010E-15  -1.00000000000000E+00  -1.00000000000000E+00   0.00000000000000E+00   0.00000000000000E+00
      2.93762806067763E-21  -6.75607547024311E-12  -6.75607546730548E-12  -2.79230419970135E-15   0.00000000000000E+00
      0.00000000000000E+00   0.00000000000000E+00   0.00000000000000E+00   6.09965487778393E-29   6.74725191357031E-12
      6.74725191357031E-12  -1.71963355970881E-15
      3.94400000000000E-03
      9.90140000000000E-01   9.90140000000000E-01   0.00000000000000E+00   0.00000000000000E+00   2.50233936747897E-36
     -2.50233936747897E-36   0.00000000000000E+00   9.68270511699340E-16   0.00000000000000E+00   0.00000000000000E+00
      0.00000000000000E+00   0.00000000000000E+00   8.86168124604343E-15  -1.79344283120786E-16   8.68233696292264E-15
      3.54111731425040E-15  -1.00000000000000E+00  -1.00000000000000E+00   0.00000000000000E+00   0.00000000000000E+00
     -3.34582018689853E-19  -7.12714123025634E-12  -7.12714156483836E-12  -2.79102918518108E-15   0.00000000000000E+00
      0.00000000000000E+00   0.00000000000000E+00   0.00000000000000E+00   4.72608513866490E-28   7.11845922787545E-12
      7.11845922787545E-12  -1.71835864076865E-15
      6.10720000000000E-03
      9.84732000000000E-01   9.84732000000000E-01   0.00000000000000E+00   0.00000000000000E+00   1.25394780188180E-36
     -1.25394780188180E-36   0.00000000000000E+00   9.64793237954265E-16   0.00000000000000E+00   0.00000000000000E+00
      0.00000000000000E+00   0.00000000000000E+00   8.85691704908341E-15  -8.24451191224864E-20   8.85683460396429E-15
      3.54127971528788E-15  -1.00000000000000E+00  -1.00000000000000E+00   0.00000000000000E+00   0.00000000000000E+00
      1.15606980404507E-20  -7.64035547764420E-12  -7.64035546608350E-12  -2.78937165007722E-15   0.00000000000000E+00
      0.00000000000000E+00   0.00000000000000E+00   0.00000000000000E+00   1.43374673954614E-28   7.63149863147955E-12
      7.63149863147955E-12  -1.71670130316492E-15
      8.83283200000000E-03
      9.77917920000000E-01   9.77917920000000E-01   0.00000000000000E+00   0.00000000000000E+00   1.26120793702501E-36
     -1.26120793702501E-36   0.00000000000000E+00   9.60411910021165E-16   0.00000000000000E+00   0.00000000000000E+00
      0.00000000000000E+00   0.00000000000000E+00   8.85136378871397E-15   1.45446989355617E-19   8.85150923570332E-15
      3.54148437178115E-15  -1.00000000000000E+00  -1.00000000000000E+00   0.00000000000000E+00   0.00000000000000E+00
      1.27258211341073E-20  -8.34036449292884E-12  -8.34036448020302E-12  -2.78728313004533E-15   0.00000000000000E+00
      0.00000000000000E+00   0.00000000000000E+00   0.00000000000000E+00  -3.22713454281533E-29   8.33151297096728E-12
      8.33151297096728E-12  -1.71461315175698E-15
      1.22671283200000E-02
      9.69332179200000E-01   9.69332179200000E-01   0.00000000000000E+00   0.00000000000000E+00   1.25519840660648E-36
     -1.25519840660648E-36   0.00000000000000E+00   9.54891495469236E-16   0.00000000000000E+00   0.00000000000000E+00
      0.00000000000000E+00   0.00000000000000E+00   8.84445069506131E-15   2.50654628238940E-20   8.84447576052413E-15
      3.54174229369762E-15  -1.00000000000000E+00  -1.00000000000000E+00   0.00000000000000E+00   0.00000000000000E+00
     -4.72428998981733E-20  -9.31507066051830E-12  -9.31507070776120E-12  -2.78465155448854E-15   0.00000000000000E+00
      0.00000000000000E+00   0.00000000000000E+00   0.00000000000000E+00   4.00303613563211E-28   9.30622623200067E-12
      9.30622623200067E-12  -1.71198223467831E-15
      1.66630276096000E-02
      9.58342430976000E-01   9.58342430976000E-01   0.00000000000000E+00   0.00000000000000E+00   1.20595302176404E-36
     -1.20595302176404E-36   0.00000000000000E+00   9.47825460089404E-16   0.00000000000000E+00   0.00000000000000E+00
      0.00000000000000E+00   0.00000000000000E+00   8.83552836404133E-15   5.89274787380848E-20   8.83558729152007E-15
      3.54207253379540E-15  -1.00000000000000E+00  -1.00000000000000E+00   0.00000000000000E+00   0.00000000000000E+00
     -1.71793855288826E-20  -1.07318793394271E-11  -1.07318793566065E-11  -2.78128307352182E-15   0.00000000000000E+00
      0.00000000000000E+00   0.00000000000000E+00   0.00000000000000E+00  -2.91658920613981E-28   1.07230437693150E-11
      1.07230437693150E-11  -1.70861492036299E-15
      2.22897787002880E-02
      9.44275553249280E-01   9.44275553249280E-01   0.00000000000000E+00   0.00000000000000E+00   1.24776863397588E-36
     -1.24776863397588E-36   0.00000000000000E+00   9.38781090451779E-16   0.00000000000000E+00   0.00000000000000E+00
      0.00000000000000E+00   0.00000000000000E+00   8.82417766518131E-15   1.33362316232927E-19   8.82431102749754E-15
      3.54249542854691E-15  -1.00000000000000E+00  -1.00000000000000E+00   0.00000000000000E+00   0.00000000000000E+00
     -2.76949143705758E-21  -1.28663875298906E-11  -1.28663875326601E-11  -2.77697131545328E-15   0.00000000000000E+00
      0.00000000000000E+00   0.00000000000000E+00   0.00000000000000E+00   3.22817979158494E-28   1.28575632216326E-11
      1.28575632216326E-11  -1.70430520354540E-15
      2.94920200963686E-02
      9.26269949759078E-01   9.26269949759078E-01   0.00000000000000E+00   0.00000000000000E+00   1.20717342976830E-36
     -1.20717342976830E-36   0.00000000000000E+00   9.27204551350378E-16   0.00000000000000E+00   0.00000000000000E+00
      0.00000000000000E+00   0.00000000000000E+00   8.80971931560475E-15  -1.20631925442687E-19   8.80959868367931E-15
      3.54303709178600E-15  -1.00000000000000E+00  -1.00000000000000E+00   0.00000000000000E+00   0.00000000000000E+00
     -1.52381714195496E-21  -1.62333453480499E-11  -1.62333453495737E-11  -2.77145210336185E-15   0.00000000000000E+00
      0.00000000000000E+00   0.00000000000000E+00   0.00000000000000E+00   6.00402999431792E-28   1.62245357508902E-11
      1.62245357508902E-11  -1.69878953977453E-15
      3.87108890833519E-02
      9.03222777291620E-01   9.03222777291620E-01   0.00000000000000E+00   0.00000000000000E+00   1.23335853998323E-36
     -1.23335853998323E-36   0.00000000000000E+00   9.12386995058324E-16   0.00000000000000E+00   0.00000000000000E+00
      0.00000000000000E+00   0.00000000000000E+00   8.79124523606683E-15   2.94998727419191E-20   8.79127473593957E-15
      3.54373111831269E-15  -1.00000000000000E+00  -1.00000000000000E+00   0.00000000000000E+00   0.00000000000000E+00
     -4.87957655292488E-21  -2.18670648245599E-11  -2.18670648294395E-11  -2.76438725983062E-15   0.00000000000000E+00
      0.00000000000000E+00   0.00000000000000E+00   0.00000000000000E+00  -7.67483723312618E-29   2.18582735547036E-11
      2.18582735547036E-11  -1.69173085354041E-15
      5.05110413866904E-02
      8.73722396533274E-01   8.73722396533274E-01   0.00000000000000E+00   0.00000000000000E+00   1.24242130126755E-36
     -1.24242130126755E-36   0.00000000000000E+00   8.93421194469245E-16   0.00000000000000E+00   0.00000000000000E+00
      0.00000000000000E+00   0.00000000000000E+00   8.76750604688743E-15   7.59777950332070E-20   8.76758202468247E-15
      3.54462086073308E-15  -1.00000000000000E+00  -1.00000000000000E+00   0.00000000000000E+00   0.00000000000000E+00
     -6.23955121313358E-21  -3.20356248194076E-11  -3.20356248256471E-11  -2.75534387504330E-15   0.00000000000000E+00
      0.00000000000000E+00   0.00000000000000E+00   0.00000000000000E+00   1.40533355745859E-28   3.20268572436224E-11
      3.20268572436224E-11  -1.68269818015901E-15
      6.56152363349637E-02
      8.35961909162591E-01   8.35961909162591E-01   0.00000000000000E+00   0.00000000000000E+00   1.27339129833041E-36
     -1.27339129833041E-36   0.00000000000000E+00   8.69146052472198E-16   0.00000000000000E+00   0.00000000000000E+00
      0.00000000000000E+00   0.00000000000000E+00   8.73658673754919E-15  -4.81788304805538E-19   8.73610494924439E-15
      3.54576255727621E-15  -1.00000000000000E+00  -1.00000000000000E+00   0.00000000000000E+00   0.00000000000000E+00
     -1.08945501602177E-21  -5.22663735931761E-11  -5.22663735942656E-11  -2.74376777220983E-15   0.00000000000000E+00
      0.00000000000000E+00   0.00000000000000E+00   0.00000000000000E+00  -2.49818437519759E-28   5.22576374893163E-11
      5.22576374893163E-11  -1.67114083753858E-15
      8.49486058687535E-02
      7.87628485328116E-01   7.87628485328116E-01   0.00000000000000E+00   0.00000000000000E+00   1.26120411804898E-36
     -1.26120411804898E-36   0.00000000000000E+00   8.38075596287271E-16   0.00000000000000E+00   0.00000000000000E+00
      0.00000000000000E+00   0.00000000000000E+00   8.69511898472103E-15  -7.76496806048979E-18   8.68735401666054E-15
      3.54722982413824E-15  -1.00000000000000E+00  -1.00000000000000E+00   0.00000000000000E+00   0.00000000000000E+00
     -9.61508933579032E-22  -9.78824150820122E-11  -9.78824150829737E-11  -2.72894955997144E-15   0.00000000000000E+00
      0.00000000000000E+00   0.00000000000000E+00   0.00000000000000E+00   6.07279328592084E-29   9.78737277289569E-11
      9.78737277289569E-11  -1.65635586045408E-15
      1.00000000000000E-01
      7.50000000000000E-01   7.50000000000000E-01   0.00000000000000E+00   0.00000000000000E+00   1.28701899607040E-36
     -1.28701899607040E-36   0.00000000000000E+00   8.13887945434879E-16   0.00000000000000E+00   0.00000000000000E+00
      0.00000000000000E+00   0.00000000000000E+00   8.66026410335349E-15   1.58975860633523E-18   8.66185386195982E-15
      3.54837786658837E-15  -1.00000000000000E+00  -1.00000000000000E+00   0.00000000000000E+00   0.00000000000000E+00
     -1.18579503150988E-21  -1.59592180583870E-10  -1.59592180585055E-10  -2.71741279728622E-15   0.00000000000000E+00
      0.00000000000000E+00   0.00000000000000E+00   0.00000000000000E+00  -2.26985252404944E-28   1.59583518731194E-10
      1.59583518731194E-10  -1.64485301473703E-15
      1.24746713003251E-01
      6.88133217491873E-01   6.88133217491873E-01   0.00000000000000E+00   0.00000000000000E+00   1.25150591628108E-36
     -1.25150591628108E-36   0.00000000000000E+00   7.74122155894326E-16   0.00000000000000E+00   0.00000000000000E+00
      0.00000000000000E+00   0.00000000000000E+00   8.59570490279296E-15  -1.11904332998641E-19   8.59559299845996E-15
      3.55027936730960E-15  -1.00000000000000E+00  -1.00000000000000E+00   0.00000000000000E+00   0.00000000000000E+00
     -1.18641845146022E-21  -3.56580898370676E-10  -3.56580898371862E-10  -2.69844399035620E-15   0.00000000000000E+00
      0.00000000000000E+00   0.00000000000000E+00   0.00000000000000E+00  -4.82352640994849E-28   3.56572302778864E-10
      3.56572302778864E-10  -1.62595753284772E-15
      1.55432637127282E-01
      6.11418407181794E-01   6.11418407181794E-01   0.00000000000000E+00   0.00000000000000E+00   1.25127245072239E-36
     -1.25127245072239E-36   0.00000000000000E+00   7.24815979979574E-16   0.00000000000000E+00   0.00000000000000E+00
      0.00000000000000E+00   0.00000000000000E+00   8.49881496502402E-15   2.83653586003519E-19   8.49909861861003E-15
      3.55266864364080E-15  -1.00000000000000E+00  -1.00000000000000E+00   0.00000000000000E+00   0.00000000000000E+00
     -1.18641695316522E-21  -9.65431303947755E-10  -9.65431303948941E-10  -2.67492219591749E-15   0.00000000000000E+00
      0.00000000000000E+00   0.00000000000000E+00   0.00000000000000E+00  -1.37625998726731E-28   9.65422804850326E-10
      9.65422804850326E-10  -1.60256242770289E-15
      1.93483183041081E-01
      5.16292042397298E-01   5.16292042397298E-01   0.00000000000000E+00   0.00000000000000E+00   1.24946790612095E-36
     -1.24946790612095E-36   0.00000000000000E+00   6.63679781719935E-16   0.00000000000000E+00   0.00000000000000E+00
      0.00000000000000E+00   0.00000000000000E+00   8.36989258909773E-15   6.15250953369218E-19   8.37050784005110E-15
      3.55569830539392E-15  -1.00000000000000E+00  -1.00000000000000E+00   0.00000000000000E+00   0.00000000000000E+00
     -1.18641957865127E-21  -3.30655462061737E-09  -3.30655462061856E-09  -2.64575610174519E-15   0.00000000000000E+00
      0.00000000000000E+00   0.00000000000000E+00   0.00000000000000E+00   8.97191022385331E-28   3.30654625011073E-09
      3.30654625011073E-09  -1.57362198536866E-15
      2.00000000000000E-01
      5.00000000000000E-01   5.00000000000000E-01   0.00000000000000E+00   0.00000000000000E+00   1.23672978561744E-36
     -1.23672978561744E-36   0.00000000000000E+00   6.53209284818893E-16   0.00000000000000E+00   0.00000000000000E+00
      0.00000000000000E+00   0.00000000000000E+00   8.35158175027993E-15   4.68054290767722E-17   8.39838717935670E-15
      3.55622670030446E-15  -1.00000000000000E+00  -1.00000000000000E+00   0.00000000000000E+00   0.00000000000000E+00
     -1.18641798406783E-21  -4.07980080419226E-09  -4.07980080419345E-09  -2.64076118654177E-15   0.00000000000000E+00
      0.00000000000000E+00   0.00000000000000E+00   0.00000000000000E+00   4.32957943274115E-28   4.07979240580630E-09
      4.07979240580630E-09  -1.56867479858160E-15
      2.47182676933110E-01
      3.82043307667224E-01   3.82043307667224E-01   0.00000000000000E+00   0.00000000000000E+00   1.24197310546747E-36
     -1.24197310546747E-36   0.00000000000000E+00   5.77397960766751E-16   0.00000000000000E+00   0.00000000000000E+00
      0.00000000000000E+00   0.00000000000000E+00   8.25389054981906E-15  -5.56772717123556E-19   8.25333377710194E-15
      3.56016566014815E-15  -1.00000000000000E+00  -1.00000000000000E+00   0.00000000000000E+00   0.00000000000000E+00
     -1.18641929011349E-21  -1.85022144309661E-08  -1.85022144309673E-08  -2.60460248845415E-15   0.00000000000000E+00
      0.00000000000000E+00   0.00000000000000E+00   0.00000000000000E+00   1.25876575857516E-27   1.85022061776336E-08
      1.85022061776336E-08  -1.53296113246075E-15
      3.00000000000000E-01
      2.50000000000000E-01   2.50000000000000E-01   0.00000000000000E+00   0.00000000000000E+00   1.24258555411862E-36
     -1.24258555411862E-36   0.00000000000000E+00   4.92501945581898E-16   0.00000000000000E+00   0.00000000000000E+00
      0.00000000000000E+00   0.00000000000000E+00   8.18118179622729E-15  -1.20566861561888E-19   8.18106122936573E-15
      3.56492758613834E-15  -1.00000000000000E+00  -1.00000000000000E+00   0.00000000000000E+00   0.00000000000000E+00
     -1.18642893225612E-21  -9.73011436437891E-08  -9.73011436437903E-08  -2.56414799908616E-15   0.00000000000000E+00
      0.00000000000000E+00   0.00000000000000E+00   0.00000000000000E+00   7.48477015403281E-27   9.73011354627295E-08
      9.73011354627295E-08  -1.49328153263409E-15
      3.59450172935719E-01
      1.01374567660702E-01   1.01374567660702E-01   0.00000000000000E+00   0.00000000000000E+00   1.24266756486694E-36
     -1.24266756486694E-36   0.00000000000000E+00   3.96791343902894E-16   0.00000000000000E+00   0.00000000000000E+00
      0.00000000000000E+00   0.00000000000000E+00   8.11376065633903E-15  -7.66264971576033E-19   8.11299439136746E-15
      3.57115189385163E-15  -1.00000000000000E+00  -1.00000000000000E+00   0.00000000000000E+00   0.00000000000000E+00
     -1.18647112004642E-21  -5.79223882543676E-07  -5.79223882543677E-07  -2.51869211706518E-15   0.00000000000000E+00
      0.00000000000000E+00   0.00000000000000E+00   0.00000000000000E+00   4.54877834800960E-26   5.79223874430690E-07
      5.79223874430690E-07  -1.44925112068935E-15
      4.00000000000000E-01
      0.00000000000000E+00   0.00000000000000E+00   0.00000000000000E+00   0.00000000000000E+00   1.22273853230074E-36
     -1.22273853230074E-36   0.00000000000000E+00   3.31248608998229E-16   0.00000000000000E+00   0.00000000000000E+00
      0.00000000000000E+00   0.00000000000000E+00   8.06900061756711E-15  -1.21903101987777E-15   6.84996959768935E-15
      3.57642683221317E-15  -1.00000000000000E+00  -1.00000000000000E+00   0.00000000000000E+00   0.00000000000000E+00
     -1.18657359147802E-21  -1.76438856730858E-06  -1.76438856730858E-06  -2.48781159692255E-15   0.00000000000000E+00
      0.00000000000000E+00   0.00000000000000E+00   0.00000000000000E+00   1.37962800558112E-25   1.76438856045863E-06
      1.76438856045863E-06  -1.41986384428886E-15
      4.73718214440292E-01
     -1.84295536100729E-01  -1.84295536100729E-01   0.00000000000000E+00   0.00000000000000E+00   1.24804918686725E-36
     -1.24804918686725E-36   0.00000000000000E+00   2.10851398629542E-16   0.00000000000000E+00   0.00000000000000E+00
      0.00000000000000E+00   0.00000000000000E+00   8.00852909683092E-15  -5.12880879408951E-14  -4.32795588440642E-14
      3.58999487204452E-15  -1.00000000000000E+00  -1.00000000000000E+00   0.00000000000000E+00   0.00000000000000E+00
     -1.18720268514802E-21  -9.06251681888405E-06  -9.06251681888405E-06  -2.43228606815421E-15   0.00000000000000E+00
      0.00000000000000E+00   0.00000000000000E+00   0.00000000000000E+00   7.08541583978158E-25   9.06251686216371E-06
      9.06251686216371E-06  -1.36856020251987E-15
      5.00000000000000E-01
     -2.50000000000000E-01  -2.50000000000000E-01   0.00000000000000E+00   0.00000000000000E+00   1.27633612172321E-36
     -1.27633612172321E-36   0.00000000000000E+00   1.67409798085279E-16   0.00000000000000E+00   0.00000000000000E+00
      0.00000000000000E+00   0.00000000000000E+00   7.99748928280937E-15   6.70480821764332E-19   7.99815976363114E-15
      3.59637598183024E-15  -1.00000000000000E+00  -1.00000000000000E+00   0.00000000000000E+00   0.00000000000000E+00
     -1.18763552602948E-21  -1.40875954495864E-05  -1.40875954495864E-05  -2.41276761616294E-15   0.00000000000000E+00
      0.00000000000000E+00   0.00000000000000E+00   0.00000000000000E+00   1.10177851811672E-24   1.40875954415883E-05
      1.40875954415883E-05  -1.35101816375258E-15
      5.91410585905962E-01
     -4.78526464764904E-01  -4.78526464764904E-01   0.00000000000000E+00   0.00000000000000E+00   1.22852829360208E-36
     -1.22852829360208E-36   0.00000000000000E+00   1.44112897945298E-17   0.00000000000000E+00   0.00000000000000E+00
      0.00000000000000E+00   0.00000000000000E+00   7.98742850134075E-15  -1.05001034019844E-17   7.97692839793877E-15
      3.62419691441179E-15  -1.00000000000000E+00  -1.00000000000000E+00   0.00000000000000E+00   0.00000000000000E+00
     -1.18999637973138E-21  -4.15048535531309E-05  -4.15048535531309E-05  -2.34609420995642E-15   0.00000000000000E+00
      0.00000000000000E+00   0.00000000000000E+00   0.00000000000000E+00   3.24548575692974E-24   4.15048535451541E-05
      4.15048535451541E-05  -1.29251399424988E-15
      6.00000000000000E-01
     -5.00000000000000E-01  -5.00000000000000E-01   0.00000000000000E+00   0.00000000000000E+00   1.27372349355575E-36
     -1.27372349355575E-36   0.00000000000000E+00  -8.45523971840180E-20   0.00000000000000E+00   0.00000000000000E+00
      0.00000000000000E+00   0.00000000000000E+00   7.98783773843794E-15   1.03522616793819E-18   7.98887296460588E-15
      3.62717333690004E-15  -1.00000000000000E+00  -1.00000000000000E+00   0.00000000000000E+00   0.00000000000000E+00
     -1.19027503971729E-21  -4.47414852989784E-05  -4.47414852989784E-05  -2.33991481329233E-15   0.00000000000000E+00
      0.00000000000000E+00   0.00000000000000E+00   0.00000000000000E+00   3.49914708683312E-24   4.47414852909897E-05
      4.47414852909897E-05  -1.28717397121053E-15
      7.00000000000000E-01
     -7.50000000000000E-01  -7.50000000000000E-01   0.00000000000000E+00   0.00000000000000E+00   1.98023491666385E-36
     -1.98023491666385E-36   0.00000000000000E+00  -1.69794695285115E-16   0.00000000000000E+00   0.00000000000000E+00
      0.00000000000000E+00   0.00000000000000E+00   7.99858775623332E-15  -1.61336634141961E-19   7.99842641959918E-15
      3.66495682667222E-15  -1.00000000000000E+00  -1.00000000000000E+00   0.00000000000000E+00   0.00000000000000E+00
     -1.19400696110895E-21  -8.80943424643245E-05  -8.80943424643245E-05  -2.26880825662472E-15   0.00000000000000E+00
      0.00000000000000E+00   0.00000000000000E+00   0.00000000000000E+00   6.89037779815090E-24   8.80943424563263E-05
      8.80943424563263E-05  -1.22635387476238E-15
      8.00000000000000E-01
     -1.00000000000000E+00  -1.00000000000000E+00   0.00000000000000E+00   0.00000000000000E+00   1.26477907514585E-36
     -1.26477907514585E-36   0.00000000000000E+00  -3.40573247471704E-16   0.00000000000000E+00   0.00000000000000E+00
      0.00000000000000E+00   0.00000000000000E+00   8.01262209897598E-15   8.62554004074148E-16   8.87517610305013E-15
      3.70683580706714E-15  -1.00000000000000E+00  -1.00000000000000E+00   0.00000000000000E+00   0.00000000000000E+00
     -1.19833640301419E-21  -1.38400510096715E-04  -1.38400510096715E-04  -2.19894233529446E-15   0.00000000000000E+00
      0.00000000000000E+00   0.00000000000000E+00   0.00000000000000E+00   1.08271943952904E-23   1.38400510087841E-04
      1.38400510087841E-04  -1.16732022430098E-15
      9.00000000000000E-01
     -1.25000000000000E+00  -1.25000000000000E+00   0.00000000000000E+00   0.00000000000000E+00   1.26764169356703E-36
     -1.26764169356703E-36   0.00000000000000E+00  -5.11820582835529E-16   0.00000000000000E+00   0.00000000000000E+00
      0.00000000000000E+00   0.00000000000000E+00   8.02529116659119E-15   4.86568340965903E-19   8.02577773493216E-15
      3.75137751574999E-15  -1.00000000000000E+00  -1.00000000000000E+00   0.00000000000000E+00   0.00000000000000E+00
     -1.20298815139628E-21  -1.92464529366370E-04  -1.92464529366370E-04  -2.13007017826761E-15   0.00000000000000E+00
      0.00000000000000E+00   0.00000000000000E+00   0.00000000000000E+00   1.50611500886069E-23   1.92464529358345E-04
      1.92464529358345E-04  -1.10948675464687E-15
      1.00000000000000E+00
     -1.50000000000000E+00  -1.50000000000000E+00   0.00000000000000E+00   0.00000000000000E+00   1.25552270161630E-36
     -1.25552270161630E-36   0.00000000000000E+00  -6.83200643921325E-16   0.00000000000000E+00   0.00000000000000E+00
      0.00000000000000E+00   0.00000000000000E+00   8.03757346140429E-15   2.30721233974004E-18   8.03988067374403E-15
      3.79782249653341E-15  -1.00000000000000E+00  -1.00000000000000E+00   0.00000000000000E+00   0.00000000000000E+00
     -1.20780465344007E-21  -2.48455736990598E-04  -2.48455736990598E-04  -2.06207711005879E-15   0.00000000000000E+00
      0.00000000000000E+00   0.00000000000000E+00   0.00000000000000E+00   1.94469985669975E-23   2.48455736982558E-04
      2.48455736982558E-04  -1.05254474255330E-15
}
