DF-ISE text

Info {
  version   = 1.0
  type      = xyplot
  datasets  = [
    "time"
    "gate OuterVoltage" "gate InnerVoltage" "gate QuasiFermiPotential" "gate DisplacementCurrent" "gate eCurrent"
    "gate hCurrent" "gate TotalCurrent" "gate Charge" "substrate OuterVoltage" "substrate InnerVoltage"
    "substrate QuasiFermiPotential" "substrate DisplacementCurrent" "substrate eCurrent" "substrate hCurrent" "substrate TotalCurrent"
    "substrate Charge" "drain OuterVoltage" "drain InnerVoltage" "drain QuasiFermiPotential" "drain DisplacementCurrent"
    "drain eCurrent" "drain hCurrent" "drain TotalCurrent" "drain Charge" "source OuterVoltage"
    "source InnerVoltage" "source QuasiFermiPotential" "source DisplacementCurrent" "source eCurrent" "source hCurrent"
    "source TotalCurrent" "source Charge" ]
  functions = [
    Time
    OuterVoltage InnerVoltage QuasiFermiPotential DisplacementCurrent eCurrent
    hCurrent TotalCurrent Charge OuterVoltage InnerVoltage
    QuasiFermiPotential DisplacementCurrent eCurrent hCurrent TotalCurrent
    Charge OuterVoltage InnerVoltage QuasiFermiPotential DisplacementCurrent
    eCurrent hCurrent TotalCurrent Charge OuterVoltage
    InnerVoltage QuasiFermiPotential DisplacementCurrent eCurrent hCurrent
    TotalCurrent Charge ]
}

Data {
      0.00000000000000E+00
     -1.00000000000000E+00  -1.00000000000000E+00   0.00000000000000E+00   0.00000000000000E+00   8.34620694341251E-36
     -8.34620694341251E-36   0.00000000000000E+00  -9.40681342659179E-16   0.00000000000000E+00   0.00000000000000E+00
      0.00000000000000E+00   0.00000000000000E+00  -2.76060099224509E-19  -1.59859181784392E-15  -1.59886787794314E-15
     -3.93516067453610E-15   1.00000000000000E+00   1.00000000000000E+00   0.00000000000000E+00   0.00000000000000E+00
      1.59893788156043E-15   8.27304227389384E-21   1.59894615460270E-15   2.99537421634229E-15   0.00000000000000E+00
      0.00000000000000E+00   0.00000000000000E+00   0.00000000000000E+00  -7.82766594377663E-20  -1.24509249596789E-28
     -7.82766595622756E-20   1.88046780085298E-15
      1.00000000000000E-03
     -9.97500000000000E-01  -9.97500000000000E-01   0.00000000000000E+00   0.00000000000000E+00   8.23643229782774E-36
     -8.23643229782774E-36   0.00000000000000E+00  -9.38559155075103E-16   0.00000000000000E+00   0.00000000000000E+00
      0.00000000000000E+00   0.00000000000000E+00   6.90525271768461E-20  -1.59868921032206E-15  -1.59862015779488E-15
     -3.93574612673164E-15   1.00000000000000E+00   1.00000000000000E+00   0.00000000000000E+00   0.00000000000000E+00
      1.59911311512343E-15   8.27304249312277E-21   1.59912138816592E-15   2.99459571713674E-15   0.00000000000000E+00
      0.00000000000000E+00   0.00000000000000E+00   0.00000000000000E+00  -5.01230371249463E-19   2.05221524444589E-28
     -5.01230371044241E-19   1.87970956467000E-15
      2.28000000000000E-03
     -9.94300000000000E-01  -9.94300000000000E-01   0.00000000000000E+00   0.00000000000000E+00   8.28658663522738E-36
     -8.28658663522738E-36   0.00000000000000E+00  -9.35844744202536E-16   0.00000000000000E+00   0.00000000000000E+00
      0.00000000000000E+00   0.00000000000000E+00   3.48571158614578E-19  -1.59881444430321E-15  -1.59846587314460E-15
     -3.93649300921487E-15   1.00000000000000E+00   1.00000000000000E+00   0.00000000000000E+00   0.00000000000000E+00
      1.59938490417505E-15   8.27304277373049E-21   1.59939317721782E-15   2.99359902306796E-15   0.00000000000000E+00
      0.00000000000000E+00   0.00000000000000E+00   0.00000000000000E+00  -9.27304073288426E-19   6.22068956773299E-29
     -9.27304073226219E-19   1.87873873034943E-15
      3.91840000000000E-03
     -9.90204000000000E-01  -9.90204000000000E-01   0.00000000000000E+00   0.00000000000000E+00   8.30875107242767E-36
     -8.30875107242767E-36   0.00000000000000E+00  -9.32373534592938E-16   0.00000000000000E+00   0.00000000000000E+00
      0.00000000000000E+00   0.00000000000000E+00  -5.59870146272604E-19  -1.59897569788803E-15  -1.59953556803430E-15
     -3.93744495545945E-15   1.00000000000000E+00   1.00000000000000E+00   0.00000000000000E+00   0.00000000000000E+00
      1.59960204178810E-15   8.27304313291831E-21   1.59961031483123E-15   2.99232290377799E-15   0.00000000000000E+00
      0.00000000000000E+00   0.00000000000000E+00   0.00000000000000E+00  -7.47467967393498E-20  -1.97021381591162E-28
     -7.47467969363712E-20   1.87749558627438E-15
      6.01555200000000E-03
     -9.84961120000000E-01  -9.84961120000000E-01   0.00000000000000E+00   0.00000000000000E+00   8.25897810965836E-36
     -8.25897810965836E-36   0.00000000000000E+00  -9.27935640056541E-16   0.00000000000000E+00   0.00000000000000E+00
      0.00000000000000E+00   0.00000000000000E+00  -2.15497054096721E-19  -1.59918370133261E-15  -1.59939919838671E-15
     -3.93865684598677E-15   1.00000000000000E+00   1.00000000000000E+00   0.00000000000000E+00   0.00000000000000E+00
      1.59973522722039E-15   8.27304359264097E-21   1.59974350026399E-15   2.99068889942639E-15   0.00000000000000E+00
      0.00000000000000E+00   0.00000000000000E+00   0.00000000000000E+00  -3.44301877237739E-19  -4.38170713650000E-29
     -3.44301877281556E-19   1.87590358661693E-15
      8.69990656000000E-03
     -9.78250233600000E-01  -9.78250233600000E-01   0.00000000000000E+00   0.00000000000000E+00   8.19041373322443E-36
     -8.19041373322443E-36   0.00000000000000E+00  -9.22263639236246E-16   0.00000000000000E+00   0.00000000000000E+00
      0.00000000000000E+00   0.00000000000000E+00   4.10457921654083E-19  -1.59945263487553E-15  -1.59904217695387E-15
     -3.94019737226301E-15   1.00000000000000E+00   1.00000000000000E+00   0.00000000000000E+00   0.00000000000000E+00
      1.59974392329155E-15   8.27304418113176E-21   1.59975219633573E-15   2.98859644413268E-15   0.00000000000000E+00
      0.00000000000000E+00   0.00000000000000E+00   0.00000000000000E+00  -7.10019381888674E-19   2.48241230333243E-29
     -7.10019381863850E-19   1.87386456736658E-15
      1.21358803968000E-02
     -9.69660299008000E-01  -9.69660299008000E-01   0.00000000000000E+00   0.00000000000000E+00   8.17143399261203E-36
     -8.17143399261203E-36   0.00000000000000E+00  -9.15017190279454E-16   0.00000000000000E+00   0.00000000000000E+00
      0.00000000000000E+00   0.00000000000000E+00   2.55634401235193E-19  -1.59980140576432E-15  -1.59954577136308E-15
     -3.94215198397657E-15   1.00000000000000E+00   1.00000000000000E+00   0.00000000000000E+00   0.00000000000000E+00
      1.59996132047901E-15   8.27304493448717E-21   1.59996959352394E-15   2.98591659283889E-15   0.00000000000000E+00
      0.00000000000000E+00   0.00000000000000E+00   0.00000000000000E+00  -4.23822160774473E-19  -8.66161316870835E-29
     -4.23822160861089E-19   1.87125258141714E-15
      1.65339269079040E-02
     -9.58665182730240E-01  -9.58665182730240E-01   0.00000000000000E+00   0.00000000000000E+00   8.26302817679436E-36
     -8.26302817679436E-36   0.00000000000000E+00  -9.05763728813403E-16   0.00000000000000E+00   0.00000000000000E+00
      0.00000000000000E+00   0.00000000000000E+00   6.08790936593998E-19  -1.60025548578758E-15  -1.59964669485099E-15
     -3.94462615819628E-15   1.00000000000000E+00   1.00000000000000E+00   0.00000000000000E+00   0.00000000000000E+00
      1.60023597429544E-15   8.27304589867116E-21   1.60024424734134E-15   2.98248394326320E-15   0.00000000000000E+00
      0.00000000000000E+00   0.00000000000000E+00   0.00000000000000E+00  -5.97552490091528E-19  -2.63525978430878E-28
     -5.97552490355054E-19   1.86790594374648E-15
      2.21634264421171E-02
     -9.44591433894707E-01  -9.44591433894707E-01   0.00000000000000E+00   0.00000000000000E+00   8.21771883641031E-36
     -8.21771883641031E-36   0.00000000000000E+00  -8.93954322373341E-16   0.00000000000000E+00   0.00000000000000E+00
      0.00000000000000E+00   0.00000000000000E+00   1.26013352609762E-18  -1.60084956493580E-15  -1.59958943140971E-15
     -3.94774885367977E-15   1.00000000000000E+00   1.00000000000000E+00   0.00000000000000E+00   0.00000000000000E+00
      1.60107859165765E-15   8.27304713302830E-21   1.60108686470479E-15   2.97808622220811E-15   0.00000000000000E+00
      0.00000000000000E+00   0.00000000000000E+00   0.00000000000000E+00  -1.49743329496519E-18  -1.11245648342885E-28
     -1.49743329507643E-18   1.86361695384500E-15
      2.93691858459099E-02
     -9.26577035385225E-01  -9.26577035385225E-01   0.00000000000000E+00   0.00000000000000E+00   8.27689651606541E-36
     -8.27689651606541E-36   0.00000000000000E+00  -8.78893519054541E-16   0.00000000000000E+00   0.00000000000000E+00
      0.00000000000000E+00   0.00000000000000E+00   7.59062602583313E-18  -1.60163134017365E-15  -1.59404071414782E-15
     -3.95167593125047E-15   1.00000000000000E+00   1.00000000000000E+00   0.00000000000000E+00   0.00000000000000E+00
      1.60175474849008E-15   8.27304871300190E-21   1.60176302153879E-15   2.97245084683694E-15   0.00000000000000E+00
      0.00000000000000E+00   0.00000000000000E+00   0.00000000000000E+00  -7.72230739082582E-18  -1.46780346555122E-28
     -7.72230739097260E-18   1.85811860346807E-15
      3.85925578827647E-02
     -9.03518605293088E-01  -9.03518605293088E-01   0.00000000000000E+00   0.00000000000000E+00   8.30779792053437E-36
     -8.30779792053437E-36   0.00000000000000E+00  -8.59701667320543E-16   0.00000000000000E+00   0.00000000000000E+00
      0.00000000000000E+00   0.00000000000000E+00   4.35291028290792E-17  -1.60266692734291E-15  -1.55913782451383E-15
     -3.95659327954733E-15   1.00000000000000E+00   1.00000000000000E+00   0.00000000000000E+00   0.00000000000000E+00
      1.60300565848916E-15   8.27305073550249E-21   1.60301393153990E-15   2.96522756814785E-15   0.00000000000000E+00
      0.00000000000000E+00   0.00000000000000E+00   0.00000000000000E+00  -4.38761070258951E-17  -1.70630610892208E-28
     -4.38761070260658E-17   1.85106737871999E-15
      5.03984740899388E-02
     -8.74003814775153E-01  -8.74003814775153E-01   0.00000000000000E+00   0.00000000000000E+00   8.34191699368437E-36
     -8.34191699368437E-36   0.00000000000000E+00  -8.35267586921803E-16   0.00000000000000E+00   0.00000000000000E+00
      0.00000000000000E+00   0.00000000000000E+00   2.65564874312276E-16  -1.60404936082970E-15  -1.33848448651742E-15
     -3.96271948799556E-15   1.00000000000000E+00   1.00000000000000E+00   0.00000000000000E+00   0.00000000000000E+00
      1.60325097106816E-15   8.27305332404728E-21   1.60325924412148E-15   2.95596604754546E-15   0.00000000000000E+00
      0.00000000000000E+00   0.00000000000000E+00   0.00000000000000E+00  -2.64774757605277E-16   1.21603240853436E-27
     -2.64774757604061E-16   1.84202102737190E-15
      6.55100468351217E-02
     -8.36224882912196E-01  -8.36224882912196E-01   0.00000000000000E+00   0.00000000000000E+00   8.20161507190509E-36
     -8.20161507190509E-36   0.00000000000000E+00  -8.04188476053858E-16   0.00000000000000E+00   0.00000000000000E+00
      0.00000000000000E+00   0.00000000000000E+00  -2.70201232619546E-19  -1.60591468394894E-15  -1.60618488518156E-15
     -3.97030832454133E-15   1.00000000000000E+00   1.00000000000000E+00   0.00000000000000E+00   0.00000000000000E+00
      1.60697865760553E-15   8.27305663934052E-21   1.60698693066217E-15   2.94408690135729E-15   0.00000000000000E+00
      0.00000000000000E+00   0.00000000000000E+00   0.00000000000000E+00  -8.02045480443523E-19  -1.65561219712894E-28
     -8.02045480609084E-19   1.83040989923789E-15
      8.45506284940521E-02
     -7.88623428764870E-01  -7.88623428764870E-01   0.00000000000000E+00   0.00000000000000E+00   8.17137296129590E-36
     -8.17137296129590E-36   0.00000000000000E+00  -7.65307247160913E-16   0.00000000000000E+00   0.00000000000000E+00
      0.00000000000000E+00   0.00000000000000E+00   1.69658666534724E-19  -1.60842979874548E-15  -1.60826014007894E-15
     -3.97950915601079E-15   1.00000000000000E+00   1.00000000000000E+00   0.00000000000000E+00   0.00000000000000E+00
      1.61010021485399E-15   8.27306081633213E-21   1.61010848791481E-15   2.92908283712195E-15   0.00000000000000E+00
      0.00000000000000E+00   0.00000000000000E+00   0.00000000000000E+00  -1.84834783578096E-18  -8.54113857432372E-29
     -1.84834783586637E-18   1.81573356604976E-15
      1.00000000000000E-01
     -7.50000000000000E-01  -7.50000000000000E-01   0.00000000000000E+00   0.00000000000000E+00   8.23184430774686E-36
     -8.23184430774686E-36   0.00000000000000E+00  -7.33959042522141E-16   0.00000000000000E+00   0.00000000000000E+00
      0.00000000000000E+00   0.00000000000000E+00  -2.90353052828700E-19  -1.61061786189851E-15  -1.61090821495134E-15
     -3.98671330100147E-15   1.00000000000000E+00   1.00000000000000E+00   0.00000000000000E+00   0.00000000000000E+00
      1.61343398748671E-15   8.27306420605083E-21   1.61344226055091E-15   2.91688110433785E-15   0.00000000000000E+00
      0.00000000000000E+00   0.00000000000000E+00   0.00000000000000E+00  -2.53404559982776E-18   2.47499335981209E-28
     -2.53404559958026E-18   1.80379123918576E-15
      1.23991132890252E-01
     -6.90022167774369E-01  -6.90022167774369E-01   0.00000000000000E+00   0.00000000000000E+00   8.19984980279465E-36
     -8.19984980279465E-36   0.00000000000000E+00  -6.85581827301809E-16   0.00000000000000E+00   0.00000000000000E+00
      0.00000000000000E+00   0.00000000000000E+00  -5.20734639047431E-19  -1.61432207996890E-15  -1.61484281460795E-15
     -3.99750001325262E-15   1.00000000000000E+00   1.00000000000000E+00   0.00000000000000E+00   0.00000000000000E+00
      1.62216662695361E-15   8.27306947084141E-21   1.62217490002308E-15   2.89788848489037E-15   0.00000000000000E+00
      0.00000000000000E+00   0.00000000000000E+00   0.00000000000000E+00  -7.33208541517064E-18   3.97088622971270E-29
     -7.33208541513093E-18   1.78519335566405E-15
      1.54219960331970E-01
     -6.14450099170074E-01  -6.14450099170074E-01   0.00000000000000E+00   0.00000000000000E+00   8.30997078674368E-36
     -8.30997078674368E-36   0.00000000000000E+00  -6.25064046830291E-16   0.00000000000000E+00   0.00000000000000E+00
      0.00000000000000E+00   0.00000000000000E+00  -6.66311239431783E-19  -1.61965183843016E-15  -1.62031814966959E-15
     -4.01050710068242E-15   1.00000000000000E+00   1.00000000000000E+00   0.00000000000000E+00   0.00000000000000E+00
      1.64908313179918E-15   8.27307610601030E-21   1.64909140487529E-15   2.87388793265783E-15   0.00000000000000E+00
      0.00000000000000E+00   0.00000000000000E+00   0.00000000000000E+00  -2.87732552060444E-17   3.42816157437899E-28
     -2.87732552057015E-17   1.76168321485488E-15
      1.92308282908535E-01
     -5.19229292728663E-01  -5.19229292728663E-01   0.00000000000000E+00   0.00000000000000E+00   8.15767718602871E-36
     -8.15767718602871E-36   0.00000000000000E+00  -5.49366835173179E-16   0.00000000000000E+00   0.00000000000000E+00
      0.00000000000000E+00   0.00000000000000E+00  -2.29577927122160E-19  -1.62779427867317E-15  -1.62802385660029E-15
     -4.02614820698516E-15   1.00000000000000E+00   1.00000000000000E+00   0.00000000000000E+00   0.00000000000000E+00
      1.79863579071943E-15   8.27308446872752E-21   1.79864406380390E-15   2.84354922599762E-15   0.00000000000000E+00
      0.00000000000000E+00   0.00000000000000E+00   0.00000000000000E+00  -1.70620207203504E-16  -1.07700576303430E-28
     -1.70620207203612E-16   1.73196581616074E-15
      2.00000000000000E-01
     -5.00000000000000E-01  -5.00000000000000E-01   0.00000000000000E+00   0.00000000000000E+00   8.13348304004180E-36
     -8.13348304004180E-36   0.00000000000000E+00  -5.34143674619715E-16   0.00000000000000E+00   0.00000000000000E+00
      0.00000000000000E+00   0.00000000000000E+00  -8.85204978062775E-19  -1.62968623837863E-15  -1.63057144335669E-15
     -4.02922119082891E-15   1.00000000000000E+00   1.00000000000000E+00   0.00000000000000E+00   0.00000000000000E+00
      1.87636347266472E-15   8.27308615784986E-21   1.87637174575088E-15   2.83741038313267E-15   0.00000000000000E+00
      0.00000000000000E+00   0.00000000000000E+00   0.00000000000000E+00  -2.45800302393752E-16  -4.42836923926602E-28
     -2.45800302394194E-16   1.72595448231596E-15
      2.47229519994940E-01
     -3.81926200012650E-01  -3.81926200012650E-01   0.00000000000000E+00   0.00000000000000E+00   8.23166115658283E-36
     -8.23166115658283E-36   0.00000000000000E+00  -4.41061676251270E-16   0.00000000000000E+00   0.00000000000000E+00
      0.00000000000000E+00   0.00000000000000E+00   9.01528023174352E-20  -1.64340323676017E-15  -1.64331308395785E-15
     -4.04756417873772E-15   1.00000000000000E+00   1.00000000000000E+00   0.00000000000000E+00   0.00000000000000E+00
      4.15177961882243E-15   8.27309653199838E-21   4.15178789191896E-15   2.79963462790339E-15   0.00000000000000E+00
      0.00000000000000E+00   0.00000000000000E+00   0.00000000000000E+00  -2.50847480796071E-15  -3.97546049843873E-28
     -2.50847480796111E-15   1.68899122708561E-15
      3.00000000000000E-01
     -2.50000000000000E-01  -2.50000000000000E-01   0.00000000000000E+00   0.00000000000000E+00   8.14482834265475E-36
     -8.14482834265475E-36   0.00000000000000E+00  -3.37738629181175E-16   0.00000000000000E+00   0.00000000000000E+00
      0.00000000000000E+00   0.00000000000000E+00  -6.01847380287578E-19  -1.65842510327070E-15  -1.65902695065099E-15
     -4.06717374357911E-15   1.00000000000000E+00   1.00000000000000E+00   0.00000000000000E+00   0.00000000000000E+00
      3.83523392659863E-14   8.27310812783975E-21   3.83523475390944E-14   2.75727538945652E-15   0.00000000000000E+00
      0.00000000000000E+00   0.00000000000000E+00   0.00000000000000E+00  -3.66933205884433E-14  -1.78414060593216E-28
     -3.66933205884434E-14   1.64763698330376E-15
      3.58564604793726E-01
     -1.03588488015686E-01  -1.03588488015686E-01   0.00000000000000E+00   0.00000000000000E+00   8.14049026614216E-36
     -8.14049026614216E-36   0.00000000000000E+00  -2.23761546439662E-16   0.00000000000000E+00   0.00000000000000E+00
      0.00000000000000E+00   0.00000000000000E+00  -1.00178845648217E-18  -1.66180326309183E-15  -1.66280505154831E-15
     -4.08810823605357E-15   1.00000000000000E+00   1.00000000000000E+00   0.00000000000000E+00   0.00000000000000E+00
      7.83189347929424E-13   8.27312100257524E-21   7.83189356202545E-13   2.71009719222484E-15   0.00000000000000E+00
      0.00000000000000E+00   0.00000000000000E+00   0.00000000000000E+00  -7.81526551150998E-13  -2.68291589181787E-28
     -7.81526551150998E-13   1.60177259026839E-15
      4.00000000000000E-01
      0.00000000000000E+00   0.00000000000000E+00   0.00000000000000E+00   0.00000000000000E+00   8.12879748482148E-36
     -8.12879748482148E-36   0.00000000000000E+00  -1.43491592260986E-16   0.00000000000000E+00   0.00000000000000E+00
      0.00000000000000E+00   0.00000000000000E+00   1.55881828524569E-18  -1.65817206898990E-15  -1.65661325070466E-15
     -4.10254518678050E-15   1.00000000000000E+00   1.00000000000000E+00   0.00000000000000E+00   0.00000000000000E+00
      7.07430215895651E-12   8.27313011577903E-21   7.07430216722964E-12   2.67662169607951E-15   0.00000000000000E+00
      0.00000000000000E+00   0.00000000000000E+00   0.00000000000000E+00  -7.07264555397895E-12   2.44773035729102E-28
     -7.07264555397895E-12   1.56941508296197E-15
      4.71448817848345E-01
      1.78622044620863E-01   1.78622044620863E-01   0.00000000000000E+00   0.00000000000000E+00   8.25579330932965E-36
     -8.25579330932965E-36   0.00000000000000E+00  -5.61695426622585E-18   0.00000000000000E+00   0.00000000000000E+00
      0.00000000000000E+00   0.00000000000000E+00   3.93181115649219E-19  -1.65074545125001E-15  -1.65035227013436E-15
     -4.12716175971272E-15   1.00000000000000E+00   1.00000000000000E+00   0.00000000000000E+00   0.00000000000000E+00
      3.30628592835220E-10   8.27314587184538E-21   3.30628592843493E-10   2.61874064643608E-15   0.00000000000000E+00
      0.00000000000000E+00   0.00000000000000E+00   0.00000000000000E+00  -3.30626942491225E-10  -8.68388887145171E-29
     -3.30626942491225E-10   1.51403806754286E-15
      5.00000000000000E-01
      2.50000000000000E-01   2.50000000000000E-01   0.00000000000000E+00   0.00000000000000E+00   7.94698760113640E-36
     -7.94698760113640E-36   0.00000000000000E+00   4.93673572249437E-17   0.00000000000000E+00   0.00000000000000E+00
      0.00000000000000E+00   0.00000000000000E+00   4.71111742409258E-19  -1.64889746893281E-15  -1.64842635719040E-15
     -4.13709839199129E-15   1.00000000000000E+00   1.00000000000000E+00   0.00000000000000E+00   0.00000000000000E+00
      1.54529424463526E-09   8.27315229362903E-21   1.54529424464354E-09   2.59556624711521E-15   0.00000000000000E+00
      0.00000000000000E+00   0.00000000000000E+00   0.00000000000000E+00  -1.54529259621717E-09   5.54762138227313E-28
     -1.54529259621717E-09   1.49216478765114E-15
      5.87167557774981E-01
      4.67918894437453E-01   4.67918894437453E-01   0.00000000000000E+00   0.00000000000000E+00   1.26101849435224E-35
     -1.26101849435224E-35   0.00000000000000E+00   2.17634437998452E-16   0.00000000000000E+00   0.00000000000000E+00
      0.00000000000000E+00   0.00000000000000E+00   2.29075036807475E-18  -1.64452624491709E-15  -1.64223549454901E-15
     -4.16952928620275E-15   1.00000000000000E+00   1.00000000000000E+00   0.00000000000000E+00   0.00000000000000E+00
      1.58325486527656E-07   8.27318927463553E-21   1.58325486527664E-07   2.52472677092826E-15   0.00000000000000E+00
      0.00000000000000E+00   0.00000000000000E+00   0.00000000000000E+00  -1.58325484885429E-07  -1.37797893979144E-27
     -1.58325484885429E-07   1.42716807727605E-15
      6.00000000000000E-01
      5.00000000000000E-01   5.00000000000000E-01   0.00000000000000E+00   0.00000000000000E+00   8.13910505094542E-36
     -8.13910505094542E-36   0.00000000000000E+00   2.42644989102609E-16   0.00000000000000E+00   0.00000000000000E+00
      0.00000000000000E+00   0.00000000000000E+00  -1.58356713516685E-18  -1.64375796504586E-15  -1.64534153218103E-15
     -4.17489824044955E-15   1.00000000000000E+00   1.00000000000000E+00   0.00000000000000E+00   0.00000000000000E+00
      3.02488447407313E-07   8.27320845828197E-21   3.02488447407321E-07   2.51430248167545E-15   0.00000000000000E+00
      0.00000000000000E+00   0.00000000000000E+00   0.00000000000000E+00  -3.02488445761980E-07  -2.10061941598937E-27
     -3.02488445761980E-07   1.41795076967148E-15
      7.00000000000000E-01
      7.50000000000000E-01   7.50000000000000E-01   0.00000000000000E+00   0.00000000000000E+00   1.25959568954908E-35
     -1.25959568954908E-35   0.00000000000000E+00   4.47474532145107E-16   0.00000000000000E+00   0.00000000000000E+00
      0.00000000000000E+00   0.00000000000000E+00   2.30205347637200E-18  -1.65862317157086E-15  -1.65632111809449E-15
     -4.23271602511115E-15   1.00000000000000E+00   1.00000000000000E+00   0.00000000000000E+00   0.00000000000000E+00
      1.26841670158250E-05   8.27463555830381E-21   1.26841670158250E-05   2.43411051031746E-15   0.00000000000000E+00
      0.00000000000000E+00   0.00000000000000E+00   0.00000000000000E+00  -1.26841670141687E-05  -7.97801967094776E-26
     -1.26841670141687E-05   1.35113098264858E-15
      7.25000000000000E-01
      8.12500000000000E-01   8.12500000000000E-01   0.00000000000000E+00   0.00000000000000E+00   8.13695195625926E-36
     -8.13695195625926E-36   0.00000000000000E+00   5.02234034126784E-16   0.00000000000000E+00   0.00000000000000E+00
      0.00000000000000E+00   0.00000000000000E+00  -3.93058893005164E-18  -1.66745160850438E-15  -1.67138219743443E-15
     -4.25250476462745E-15   1.00000000000000E+00   1.00000000000000E+00   0.00000000000000E+00   0.00000000000000E+00
      2.10776701260675E-05   8.27559377038376E-21   2.10776701260675E-05   2.41455603400926E-15   0.00000000000000E+00
      0.00000000000000E+00   0.00000000000000E+00   0.00000000000000E+00  -2.10776701243963E-05  -1.32669640775506E-25
     -2.10776701243963E-05   1.33571469649140E-15
      7.56000000000000E-01
      8.90000000000000E-01   8.90000000000000E-01   0.00000000000000E+00   0.00000000000000E+00   8.29673145240648E-36
     -8.29673145240648E-36   0.00000000000000E+00   5.71607127445044E-16   0.00000000000000E+00   0.00000000000000E+00
      0.00000000000000E+00   0.00000000000000E+00   3.41555986929918E-17  -1.67930673887280E-15  -1.64515114017980E-15
     -4.27924870239138E-15   1.00000000000000E+00   1.00000000000000E+00   0.00000000000000E+00   0.00000000000000E+00
      3.41844817293925E-05   8.27708862932406E-21   3.41844817293925E-05   2.39057436623523E-15   0.00000000000000E+00
      0.00000000000000E+00   0.00000000000000E+00   0.00000000000000E+00  -3.41844817277475E-05  -2.15623119071924E-25
     -3.41844817277475E-05   1.31706720871111E-15
      7.95060000000000E-01
      9.87650000000000E-01   9.87650000000000E-01   0.00000000000000E+00   0.00000000000000E+00   8.14862456967413E-36
     -8.14862456967413E-36   0.00000000000000E+00   6.60726968627869E-16   0.00000000000000E+00   0.00000000000000E+00
      0.00000000000000E+00   0.00000000000000E+00   2.12200241831655E-16  -1.69478719386170E-15  -1.48258695203004E-15
     -4.31556723061143E-15   1.00000000000000E+00   1.00000000000000E+00   0.00000000000000E+00   0.00000000000000E+00
      5.40400822488147E-05   8.27935225483119E-21   5.40400822488147E-05   2.36071392002501E-15   0.00000000000000E+00
      0.00000000000000E+00   0.00000000000000E+00   0.00000000000000E+00  -5.40400822473323E-05  -3.40507549704575E-25
     -5.40400822473323E-05   1.29412634195854E-15
      8.00000000000000E-01
      1.00000000000000E+00   1.00000000000000E+00   0.00000000000000E+00   0.00000000000000E+00   8.91046556686130E-36
     -8.91046556686130E-36   0.00000000000000E+00   6.72105161338427E-16   0.00000000000000E+00   0.00000000000000E+00
      0.00000000000000E+00   0.00000000000000E+00   7.73232096403547E-15  -1.69675396244983E-15   6.03556700158564E-15
     -4.32032829625476E-15   1.00000000000000E+00   1.00000000000000E+00   0.00000000000000E+00   0.00000000000000E+00
      5.67679725171828E-05   8.27966322712688E-21   5.67679725171828E-05   2.35696246181786E-15   0.00000000000000E+00
      0.00000000000000E+00   0.00000000000000E+00   0.00000000000000E+00  -5.67679725232185E-05  -3.58436251081357E-25
     -5.67679725232185E-05   1.29126067309848E-15
      8.49215600000000E-01
      1.12303900000000E+00   1.12303900000000E+00   0.00000000000000E+00   0.00000000000000E+00   8.88633972102804E-36
     -8.88633972102804E-36   0.00000000000000E+00   7.86470499348700E-16   0.00000000000000E+00   0.00000000000000E+00
      0.00000000000000E+00   0.00000000000000E+00   1.22987574005717E-14  -1.71615246076884E-15   1.05826049398029E-14
     -4.36939034900716E-15   1.00000000000000E+00   1.00000000000000E+00   0.00000000000000E+00   0.00000000000000E+00
      8.60374574926631E-05   8.28300017718500E-21   8.60374574926631E-05   2.31985865154028E-15   0.00000000000000E+00
      0.00000000000000E+00   0.00000000000000E+00   0.00000000000000E+00  -8.60374575032459E-05  -5.42895739325635E-25
     -8.60374575032459E-05   1.26306119811818E-15
      9.00000000000000E-01
      1.25000000000000E+00   1.25000000000000E+00   0.00000000000000E+00   0.00000000000000E+00   8.30701602093428E-36
     -8.30701602093428E-36   0.00000000000000E+00   9.05962515114487E-16   0.00000000000000E+00   0.00000000000000E+00
      0.00000000000000E+00   0.00000000000000E+00   6.46811460267532E-15  -1.73542393344717E-15   4.73269066922815E-15
     -4.42249895591769E-15   1.00000000000000E+00   1.00000000000000E+00   0.00000000000000E+00   0.00000000000000E+00
      1.19345889012089E-04   8.28679898844246E-21   1.19345889012089E-04   2.28203395846757E-15   0.00000000000000E+00
      0.00000000000000E+00   0.00000000000000E+00   0.00000000000000E+00  -1.19345889016822E-04  -7.52839647540434E-25
     -1.19345889016822E-04   1.23450248233562E-15
      9.62011656000000E-01
      1.40502914000000E+00   1.40502914000000E+00   0.00000000000000E+00   0.00000000000000E+00   1.04167356346534E-35
     -1.04167356346534E-35   0.00000000000000E+00   1.05328603277865E-15   0.00000000000000E+00   0.00000000000000E+00
      0.00000000000000E+00   0.00000000000000E+00   1.10927038573818E-14  -1.75751471895849E-15   9.33518913842335E-15
     -4.48988227738563E-15   1.00000000000000E+00   1.00000000000000E+00   0.00000000000000E+00   0.00000000000000E+00
      1.62957633835703E-04   8.29177599455685E-21   1.62957633835703E-04   2.23640783475586E-15   0.00000000000000E+00
      0.00000000000000E+00   0.00000000000000E+00   0.00000000000000E+00  -1.62957633845038E-04  -1.02891361792878E-24
     -1.62957633845038E-04   1.20018840985113E-15
      1.00000000000000E+00
      1.50000000000000E+00   1.50000000000000E+00   0.00000000000000E+00   0.00000000000000E+00   7.85357151637526E-36
     -7.85357151637526E-36   0.00000000000000E+00   1.14410378037301E-15   0.00000000000000E+00   0.00000000000000E+00
      0.00000000000000E+00   0.00000000000000E+00   1.79263558321127E-17  -1.77018970476835E-15  -1.75226334893624E-15
     -4.53225291653834E-15   1.00000000000000E+00   1.00000000000000E+00   0.00000000000000E+00   0.00000000000000E+00
      1.90806846018240E-04   8.29495624424377E-21   1.90806846018240E-04   2.20873954931994E-15   0.00000000000000E+00
      0.00000000000000E+00   0.00000000000000E+00   0.00000000000000E+00  -1.90806846016488E-04  -1.20510990359374E-24
     -1.90806846016488E-04   1.17940958684542E-15
}
