DF-ISE text

Info {
  version   = 1.0
  type      = xyplot
  datasets  = [
    "time"
    "gate OuterVoltage" "gate InnerVoltage" "gate QuasiFermiPotential" "gate DisplacementCurrent" "gate eCurrent"
    "gate hCurrent" "gate TotalCurrent" "gate Charge" "substrate OuterVoltage" "substrate InnerVoltage"
    "substrate QuasiFermiPotential" "substrate DisplacementCurrent" "substrate eCurrent" "substrate hCurrent" "substrate TotalCurrent"
    "substrate Charge" "drain OuterVoltage" "drain InnerVoltage" "drain QuasiFermiPotential" "drain DisplacementCurrent"
    "drain eCurrent" "drain hCurrent" "drain TotalCurrent" "drain Charge" "source OuterVoltage"
    "source InnerVoltage" "source QuasiFermiPotential" "source DisplacementCurrent" "source eCurrent" "source hCurrent"
    "source TotalCurrent" "source Charge" ]
  functions = [
    Time
    OuterVoltage InnerVoltage QuasiFermiPotential DisplacementCurrent eCurrent
    hCurrent TotalCurrent Charge OuterVoltage InnerVoltage
    QuasiFermiPotential DisplacementCurrent eCurrent hCurrent TotalCurrent
    Charge OuterVoltage InnerVoltage QuasiFermiPotential DisplacementCurrent
    eCurrent hCurrent TotalCurrent Charge OuterVoltage
    InnerVoltage QuasiFermiPotential DisplacementCurrent eCurrent hCurrent
    TotalCurrent Charge ]
}

Data {
      0.00000000000000E+00
      1.00000000000000E+00   1.00000000000000E+00   0.00000000000000E+00   0.00000000000000E+00   2.27517492137368E-37
     -2.27517492137368E-37   0.00000000000000E+00   5.85455464859573E-16   0.00000000000000E+00   0.00000000000000E+00
      0.00000000000000E+00   0.00000000000000E+00   1.89086680936286E-13   3.06765603800962E-18   1.89089748592324E-13
      3.42263800043394E-15  -1.00000000000000E+00  -1.00000000000000E+00   0.00000000000000E+00   0.00000000000000E+00
     -9.83181924084833E-22  -2.86619879306410E-03  -2.86619879306410E-03  -2.67924041790200E-15   0.00000000000000E+00
      0.00000000000000E+00   0.00000000000000E+00   0.00000000000000E+00   2.25207174766988E-22   2.86619879287501E-03
      2.86619879287501E-03  -1.32885304739151E-15
      1.00000000000000E-03
      9.97500000000000E-01   9.97500000000000E-01   0.00000000000000E+00   0.00000000000000E+00   1.87802186863097E-35
     -1.87802186863097E-35   0.00000000000000E+00   5.84614448730057E-16   0.00000000000000E+00   0.00000000000000E+00
      0.00000000000000E+00   0.00000000000000E+00   1.89087004222112E-13  -1.14703663389909E-14   1.77616637883121E-13
      3.42265976462348E-15  -1.00000000000000E+00  -1.00000000000000E+00   0.00000000000000E+00   0.00000000000000E+00
     -9.83222215210293E-22  -2.86668036497802E-03  -2.86668036497802E-03  -2.67882673167914E-15   0.00000000000000E+00
      0.00000000000000E+00   0.00000000000000E+00   0.00000000000000E+00   2.25231275676464E-22   2.86668036480040E-03
      2.86668036480040E-03  -1.32844748167440E-15
      2.30000000000000E-03
      9.94250000000000E-01   9.94250000000000E-01   0.00000000000000E+00   0.00000000000000E+00   4.86343485995566E-37
     -4.86343485995566E-37   0.00000000000000E+00   5.83521146801299E-16   0.00000000000000E+00   0.00000000000000E+00
      0.00000000000000E+00   0.00000000000000E+00   1.89087424476041E-13  -1.61527340431788E-16   1.88925897135609E-13
      3.42268805999637E-15  -1.00000000000000E+00  -1.00000000000000E+00   0.00000000000000E+00   0.00000000000000E+00
     -9.83274516316243E-22  -2.86730640976946E-03  -2.86730640976946E-03  -2.67828894927427E-15   0.00000000000000E+00
      0.00000000000000E+00   0.00000000000000E+00   0.00000000000000E+00   2.25282275990693E-22   2.86730640958053E-03
      2.86730640958053E-03  -1.32792025752340E-15
      3.99000000000000E-03
      9.90025000000000E-01   9.90025000000000E-01   0.00000000000000E+00   0.00000000000000E+00   9.65780287077693E-37
     -9.65780287077693E-37   0.00000000000000E+00   5.82099886544774E-16   0.00000000000000E+00   0.00000000000000E+00
      0.00000000000000E+00   0.00000000000000E+00   1.89087970776263E-13  -4.59632653808664E-16   1.88628338122454E-13
      3.42272484719295E-15  -1.00000000000000E+00  -1.00000000000000E+00   0.00000000000000E+00   0.00000000000000E+00
     -9.83342608374923E-22  -2.86812026912744E-03  -2.86812026912744E-03  -2.67758984847255E-15   0.00000000000000E+00
      0.00000000000000E+00   0.00000000000000E+00   0.00000000000000E+00   2.25371429188047E-22   2.86812026893881E-03
      2.86812026893881E-03  -1.32723488526518E-15
      6.18700000000000E-03
      9.84532500000000E-01   9.84532500000000E-01   0.00000000000000E+00   0.00000000000000E+00   2.33305511855501E-36
     -2.33305511855501E-36   0.00000000000000E+00   5.80252302914129E-16   0.00000000000000E+00   0.00000000000000E+00
      0.00000000000000E+00   0.00000000000000E+00   1.89088680916131E-13  -1.31963487044865E-15   1.87769046045683E-13
      3.42277267589494E-15  -1.00000000000000E+00  -1.00000000000000E+00   0.00000000000000E+00   0.00000000000000E+00
     -9.83431012324503E-22  -2.86917828638677E-03  -2.86917828638677E-03  -2.67668104497268E-15   0.00000000000000E+00
      0.00000000000000E+00   0.00000000000000E+00   0.00000000000000E+00   2.25457859884774E-22   2.86917828619900E-03
      2.86917828619900E-03  -1.32634393383640E-15
      9.04310000000000E-03
      9.77392250000000E-01   9.77392250000000E-01   0.00000000000000E+00   0.00000000000000E+00   6.25257274180047E-36
     -6.25257274180047E-36   0.00000000000000E+00   5.77850537083967E-16   0.00000000000000E+00   0.00000000000000E+00
      0.00000000000000E+00   0.00000000000000E+00   1.89089604013580E-13  -3.76782707299817E-15   1.85321776940582E-13
      3.42283486209948E-15  -1.00000000000000E+00  -1.00000000000000E+00   0.00000000000000E+00   0.00000000000000E+00
     -9.83545921912847E-22  -2.87055370561039E-03  -2.87055370561039E-03  -2.67549964694136E-15   0.00000000000000E+00
      0.00000000000000E+00   0.00000000000000E+00   0.00000000000000E+00   2.25522992677016E-22   2.87055370542507E-03
      2.87055370542507E-03  -1.32518575224209E-15
      1.27560300000000E-02
      9.68109925000000E-01   9.68109925000000E-01   0.00000000000000E+00   0.00000000000000E+00   1.75747787820887E-35
     -1.75747787820887E-35   0.00000000000000E+00   5.74728399511179E-16   0.00000000000000E+00   0.00000000000000E+00
      0.00000000000000E+00   0.00000000000000E+00   1.89090803904950E-13  -1.07554739165955E-14   1.78335329988354E-13
      3.42291571898069E-15  -1.00000000000000E+00  -1.00000000000000E+00   0.00000000000000E+00   0.00000000000000E+00
     -9.83695371751032E-22  -2.87234173952457E-03  -2.87234173952457E-03  -2.67396390828261E-15   0.00000000000000E+00
      0.00000000000000E+00   0.00000000000000E+00   0.00000000000000E+00   2.25675928584978E-22   2.87234173934623E-03
      2.87234173934623E-03  -1.32368021020927E-15
      1.75828390000000E-02
      9.56042902500000E-01   9.56042902500000E-01   0.00000000000000E+00   0.00000000000000E+00   5.03336129202062E-35
     -5.03336129202062E-35   0.00000000000000E+00   5.70669888230324E-16   0.00000000000000E+00   0.00000000000000E+00
      0.00000000000000E+00   0.00000000000000E+00   1.89092363174955E-13  -3.08842905424212E-14   1.58208072632534E-13
      3.42302085414492E-15  -1.00000000000000E+00  -1.00000000000000E+00   0.00000000000000E+00   0.00000000000000E+00
     -9.83889874067737E-22  -2.87466612687697E-03  -2.87466612687697E-03  -2.67196757508931E-15   0.00000000000000E+00
      0.00000000000000E+00   0.00000000000000E+00   0.00000000000000E+00   2.25891269472704E-22   2.87466612671876E-03
      2.87466612671876E-03  -1.32172316728593E-15
      2.38576907000000E-02
      9.40355773250000E-01   9.40355773250000E-01   0.00000000000000E+00   0.00000000000000E+00   1.45345856089978E-34
     -1.45345856089978E-34   0.00000000000000E+00   5.65394283439325E-16   0.00000000000000E+00   0.00000000000000E+00
      0.00000000000000E+00   0.00000000000000E+00   1.89094389800730E-13  -8.91953017762154E-14   9.98990880245149E-14
      3.42315756968029E-15  -1.00000000000000E+00  -1.00000000000000E+00   0.00000000000000E+00   0.00000000000000E+00
     -9.84142846748695E-22  -2.87768776102515E-03  -2.87768776102515E-03  -2.66937256778240E-15   0.00000000000000E+00
      0.00000000000000E+00   0.00000000000000E+00   0.00000000000000E+00   2.26149382239255E-22   2.87768776092525E-03
      2.87768776092525E-03  -1.31917928533721E-15
      3.20149979100000E-02
      9.19962505225000E-01   9.19962505225000E-01   0.00000000000000E+00   0.00000000000000E+00   4.22593464380570E-34
     -4.22593464380570E-34   0.00000000000000E+00   5.58536784485668E-16   0.00000000000000E+00   0.00000000000000E+00
      0.00000000000000E+00   0.00000000000000E+00   1.89097023541056E-13  -1.83521847858439E-13   5.57517568261704E-15
      3.42333537857591E-15  -1.00000000000000E+00  -1.00000000000000E+00   0.00000000000000E+00   0.00000000000000E+00
     -9.84471396590694E-22  -2.88161556809606E-03  -2.88161556809606E-03  -2.66599944934638E-15   0.00000000000000E+00
      0.00000000000000E+00   0.00000000000000E+00   0.00000000000000E+00   2.26433287925766E-22   2.88161556809049E-03
      2.88161556809049E-03  -1.31587271371519E-15
      4.26194972830000E-02
      8.93451256792500E-01   8.93451256792500E-01   0.00000000000000E+00   0.00000000000000E+00   2.34728607948538E-37
     -2.34728607948538E-37   0.00000000000000E+00   5.49623392277890E-16   0.00000000000000E+00   0.00000000000000E+00
      0.00000000000000E+00   0.00000000000000E+00   1.89100445954052E-13   1.84206779733017E-18   1.89102288021850E-13
      3.42356664923141E-15  -1.00000000000000E+00  -1.00000000000000E+00   0.00000000000000E+00   0.00000000000000E+00
     -9.84898712300141E-22  -2.88672123645134E-03  -2.88672123645134E-03  -2.66161505938855E-15   0.00000000000000E+00
      0.00000000000000E+00   0.00000000000000E+00   0.00000000000000E+00   2.26862609765721E-22   2.88672123626224E-03
      2.88672123626224E-03  -1.31157498212075E-15
      5.61932564804400E-02
      8.59516858798900E-01   8.59516858798900E-01   0.00000000000000E+00   0.00000000000000E+00   2.34747553273326E-37
     -2.34747553273326E-37   0.00000000000000E+00   5.38216543556510E-16   0.00000000000000E+00   0.00000000000000E+00
      0.00000000000000E+00   0.00000000000000E+00   1.89104824277310E-13   1.01259716288566E-18   1.89105836874473E-13
      3.42386285231158E-15  -1.00000000000000E+00  -1.00000000000000E+00   0.00000000000000E+00   0.00000000000000E+00
     -9.85445449780631E-22  -2.89325573925045E-03  -2.89325573925045E-03  -2.65600414965556E-15   0.00000000000000E+00
      0.00000000000000E+00   0.00000000000000E+00   0.00000000000000E+00   2.27387539920193E-22   2.89325573906134E-03
      2.89325573906134E-03  -1.30607524621254E-15
      7.35676682531632E-02
      8.16080829367092E-01   8.16080829367092E-01   0.00000000000000E+00   0.00000000000000E+00   2.40000844983878E-37
     -2.40000844983878E-37   0.00000000000000E+00   5.23619653308144E-16   0.00000000000000E+00   0.00000000000000E+00
      0.00000000000000E+00   0.00000000000000E+00   1.89110424319704E-13  -3.86843227412355E-19   1.89110037476477E-13
      3.42424228301873E-15  -1.00000000000000E+00  -1.00000000000000E+00   0.00000000000000E+00   0.00000000000000E+00
     -9.86145248678964E-22  -2.90161829915970E-03  -2.90161829915970E-03  -2.64882405858786E-15   0.00000000000000E+00
      0.00000000000000E+00   0.00000000000000E+00   0.00000000000000E+00   2.28051816760744E-22   2.90161829897059E-03
      2.90161829897059E-03  -1.29903787773904E-15
      9.58069153222489E-02
      7.60482711694378E-01   7.60482711694378E-01   0.00000000000000E+00   0.00000000000000E+00   2.37796775160833E-37
     -2.37796775160833E-37   0.00000000000000E+00   5.04942242651278E-16   0.00000000000000E+00   0.00000000000000E+00
      0.00000000000000E+00   0.00000000000000E+00   1.89117585016260E-13  -1.70547224002944E-18   1.89115879544020E-13
      3.42472840708108E-15  -1.00000000000000E+00  -1.00000000000000E+00   0.00000000000000E+00   0.00000000000000E+00
     -9.87040838415844E-22  -2.91231928653805E-03  -2.91231928653805E-03  -2.63963671796137E-15   0.00000000000000E+00
      0.00000000000000E+00   0.00000000000000E+00   0.00000000000000E+00   2.28960639245373E-22   2.91231928634893E-03
      2.91231928634893E-03  -1.29003393177100E-15
      1.00000000000000E-01
      7.50000000000000E-01   7.50000000000000E-01   0.00000000000000E+00   0.00000000000000E+00   2.29326003251980E-37
     -2.29326003251980E-37   0.00000000000000E+00   5.01421579195906E-16   0.00000000000000E+00   0.00000000000000E+00
      0.00000000000000E+00   0.00000000000000E+00   1.89118934127888E-13   3.70034306375621E-18   1.89122634470952E-13
      3.42482011448602E-15  -1.00000000000000E+00  -1.00000000000000E+00   0.00000000000000E+00   0.00000000000000E+00
     -9.87209719344699E-22  -2.91433640495722E-03  -2.91433640495722E-03  -2.63790490001585E-15   0.00000000000000E+00
      0.00000000000000E+00   0.00000000000000E+00   0.00000000000000E+00   2.29118845669770E-22   2.91433640476810E-03
      2.91433640476810E-03  -1.28833679366608E-15
      1.28466236248430E-01
      6.78834409378926E-01   6.78834409378926E-01   0.00000000000000E+00   0.00000000000000E+00   3.13833130049565E-37
     -3.13833130049565E-37   0.00000000000000E+00   4.77527830425771E-16   0.00000000000000E+00   0.00000000000000E+00
      0.00000000000000E+00   0.00000000000000E+00   1.89128085258600E-13   4.77842546327444E-18   1.89132863684064E-13
      3.42544315347922E-15  -1.00000000000000E+00  -1.00000000000000E+00   0.00000000000000E+00   0.00000000000000E+00
     -9.88355639155837E-22  -2.92802612146714E-03  -2.92802612146714E-03  -2.62615145113833E-15   0.00000000000000E+00
      0.00000000000000E+00   0.00000000000000E+00   0.00000000000000E+00   2.30251057114800E-22   2.92802612127800E-03
      2.92802612127800E-03  -1.27681953276666E-15
      1.64903018646420E-01
      5.87742453383951E-01   5.87742453383951E-01   0.00000000000000E+00   0.00000000000000E+00   5.31578220155224E-37
     -5.31578220155224E-37   0.00000000000000E+00   4.46963976468182E-16   0.00000000000000E+00   0.00000000000000E+00
      0.00000000000000E+00   0.00000000000000E+00   1.89139781901624E-13   1.23261326956115E-17   1.89152108034320E-13
      3.42624169576298E-15  -1.00000000000000E+00  -1.00000000000000E+00   0.00000000000000E+00   0.00000000000000E+00
     -9.89821423795273E-22  -2.94553569785018E-03  -2.94553569785018E-03  -2.61111657786331E-15   0.00000000000000E+00
      0.00000000000000E+00   0.00000000000000E+00   0.00000000000000E+00   2.31619920077102E-22   2.94553569766103E-03
      2.94553569766103E-03  -1.26208909436786E-15
      2.00000000000000E-01
      5.00000000000000E-01   5.00000000000000E-01   0.00000000000000E+00   0.00000000000000E+00   5.35726790079858E-37
     -5.35726790079858E-37   0.00000000000000E+00   4.17547014374085E-16   0.00000000000000E+00   0.00000000000000E+00
      0.00000000000000E+00   0.00000000000000E+00   1.89151030216252E-13   8.89982994504434E-18   1.89159930046197E-13
      3.42701191142629E-15  -1.00000000000000E+00  -1.00000000000000E+00   0.00000000000000E+00   0.00000000000000E+00
     -9.91232198257745E-22  -2.96238492539410E-03  -2.96238492539410E-03  -2.59664543875413E-15   0.00000000000000E+00
      0.00000000000000E+00   0.00000000000000E+00   0.00000000000000E+00   2.33006659964126E-22   2.96238492520493E-03
      2.96238492520493E-03  -1.24791348704624E-15
      2.46639081469427E-01
      3.83402296326432E-01   3.83402296326432E-01   0.00000000000000E+00   0.00000000000000E+00   9.60589924277395E-37
     -9.60589924277395E-37   0.00000000000000E+00   3.78494042011914E-16   0.00000000000000E+00   0.00000000000000E+00
      0.00000000000000E+00   0.00000000000000E+00   1.89165940262388E-13   4.97620778651547E-17   1.89215702340253E-13
      3.42803687746970E-15  -1.00000000000000E+00  -1.00000000000000E+00   0.00000000000000E+00   0.00000000000000E+00
     -9.93104946543576E-22  -2.98474708008341E-03  -2.98474708008341E-03  -2.57743340398098E-15   0.00000000000000E+00
      0.00000000000000E+00   0.00000000000000E+00   0.00000000000000E+00   2.34794475965042E-22   2.98474707989419E-03
      2.98474707989419E-03  -1.22909751550064E-15
      3.00000000000000E-01
      2.50000000000000E-01   2.50000000000000E-01   0.00000000000000E+00   0.00000000000000E+00  -6.62219180909869E-36
      6.62219180909869E-36   0.00000000000000E+00   3.33871470853495E-16   0.00000000000000E+00   0.00000000000000E+00
      0.00000000000000E+00   0.00000000000000E+00   1.89182941865171E-13   1.95111500699393E-16   1.89378053365870E-13
      3.42921141481726E-15  -1.00000000000000E+00  -1.00000000000000E+00   0.00000000000000E+00   0.00000000000000E+00
     -9.95244601479521E-22  -3.01028785638964E-03  -3.01028785638964E-03  -2.55548052646723E-15   0.00000000000000E+00
      0.00000000000000E+00   0.00000000000000E+00   0.00000000000000E+00   2.36884819668111E-22   3.01028785620026E-03
      3.01028785620026E-03  -1.20760235920354E-15
      3.59698024280867E-01
      1.00754939297833E-01   1.00754939297833E-01   0.00000000000000E+00   0.00000000000000E+00  -8.40838681206012E-35
      8.40838681206012E-35   0.00000000000000E+00   2.84033026142846E-16   0.00000000000000E+00   0.00000000000000E+00
      0.00000000000000E+00   0.00000000000000E+00   1.89201890231765E-13   5.28393371304840E-16   1.89730283603070E-13
      3.43052749507157E-15  -1.00000000000000E+00  -1.00000000000000E+00   0.00000000000000E+00   0.00000000000000E+00
     -9.97633772050803E-22  -3.03879997688605E-03  -3.03879997688605E-03  -2.53096060097376E-15   0.00000000000000E+00
      0.00000000000000E+00   0.00000000000000E+00   0.00000000000000E+00   2.39207587227190E-22   3.03879997669632E-03
      3.03879997669632E-03  -1.18359992024066E-15
      4.00000000000000E-01
      0.00000000000000E+00   0.00000000000000E+00   0.00000000000000E+00   0.00000000000000E+00  -2.18019930498823E-35
      2.18019930498823E-35   0.00000000000000E+00   2.50442702681351E-16   0.00000000000000E+00   0.00000000000000E+00
      0.00000000000000E+00   0.00000000000000E+00   1.89214642957533E-13   8.15138444912778E-17   1.89296156802024E-13
      3.43141711617705E-15  -1.00000000000000E+00  -1.00000000000000E+00   0.00000000000000E+00   0.00000000000000E+00
     -9.99244520740891E-22  -3.05801719338760E-03  -3.05801719338760E-03  -2.51443447723775E-15   0.00000000000000E+00
      0.00000000000000E+00   0.00000000000000E+00   0.00000000000000E+00   2.40736346060004E-22   3.05801719319830E-03
      3.05801719319830E-03  -1.16742534162064E-15
      4.76413471079510E-01
     -1.91033677698774E-01  -1.91033677698774E-01   0.00000000000000E+00   0.00000000000000E+00   2.25612344309804E-37
     -2.25612344309804E-37   0.00000000000000E+00   1.86891224586811E-16   0.00000000000000E+00   0.00000000000000E+00
      0.00000000000000E+00   0.00000000000000E+00   1.89238608549672E-13  -1.29352577425634E-18   1.89237315023898E-13
      3.43310287230065E-15  -1.00000000000000E+00  -1.00000000000000E+00   0.00000000000000E+00   0.00000000000000E+00
     -1.00227924317571E-21  -3.09420975107815E-03  -3.09420975107815E-03  -2.48315842032105E-15   0.00000000000000E+00
      0.00000000000000E+00   0.00000000000000E+00   0.00000000000000E+00   2.43700896391151E-22   3.09420975088891E-03
      3.09420975088891E-03  -1.13683567656642E-15
      5.00000000000000E-01
     -2.50000000000000E-01  -2.50000000000000E-01   0.00000000000000E+00   0.00000000000000E+00  -1.06076815565049E-35
      1.06076815565049E-35   0.00000000000000E+00   1.67314606246374E-16   0.00000000000000E+00   0.00000000000000E+00
      0.00000000000000E+00   0.00000000000000E+00   1.89245975260331E-13   1.05764800258966E-17   1.89256551740357E-13
      3.43362357716062E-15  -1.00000000000000E+00  -1.00000000000000E+00   0.00000000000000E+00   0.00000000000000E+00
     -1.00321389701051E-21  -3.10535291747000E-03  -3.10535291747000E-03  -2.47352380068549E-15   0.00000000000000E+00
      0.00000000000000E+00   0.00000000000000E+00   0.00000000000000E+00   2.44630642333902E-22   3.10535291728074E-03
      3.10535291728074E-03  -1.12741438272151E-15
      5.96280973560182E-01
     -4.90702433900455E-01  -4.90702433900455E-01   0.00000000000000E+00   0.00000000000000E+00   2.28329815655418E-35
     -2.28329815655418E-35   0.00000000000000E+00   8.76203439580008E-17   0.00000000000000E+00   0.00000000000000E+00
      0.00000000000000E+00   0.00000000000000E+00   1.89275840713610E-13   2.46323027569290E-18   1.89278303943886E-13
      3.43574802352574E-15  -1.00000000000000E+00  -1.00000000000000E+00   0.00000000000000E+00   0.00000000000000E+00
     -1.00701358659056E-21  -3.15061734853983E-03  -3.15061734853983E-03  -2.43429693973457E-15   0.00000000000000E+00
      0.00000000000000E+00   0.00000000000000E+00   0.00000000000000E+00   2.48307878420919E-22   3.15061734835055E-03
      3.15061734835055E-03  -1.08907142774917E-15
      6.00000000000000E-01
     -5.00000000000000E-01  -5.00000000000000E-01   0.00000000000000E+00   0.00000000000000E+00   2.20599889069119E-37
     -2.20599889069119E-37   0.00000000000000E+00   8.45495403344185E-17   0.00000000000000E+00   0.00000000000000E+00
      0.00000000000000E+00   0.00000000000000E+00   1.89276987799940E-13  -2.98752906793560E-19   1.89276689047034E-13
      3.43583007077757E-15  -1.00000000000000E+00  -1.00000000000000E+00   0.00000000000000E+00   0.00000000000000E+00
     -1.00715976471582E-21  -3.15235897735668E-03  -3.15235897735668E-03  -2.43278534598802E-15   0.00000000000000E+00
      0.00000000000000E+00   0.00000000000000E+00   0.00000000000000E+00   2.48459055515988E-22   3.15235897716740E-03
      3.15235897716740E-03  -1.08759426512397E-15
      7.00000000000000E-01
     -7.50000000000000E-01  -7.50000000000000E-01   0.00000000000000E+00   0.00000000000000E+00   1.05345703415584E-34
     -1.05345703415584E-34   0.00000000000000E+00   2.21115960379809E-18   0.00000000000000E+00   0.00000000000000E+00
      0.00000000000000E+00   0.00000000000000E+00   1.89307651989410E-13   2.56357293561655E-18   1.89310215562346E-13
      3.43803486217946E-15  -1.00000000000000E+00  -1.00000000000000E+00   0.00000000000000E+00   0.00000000000000E+00
     -1.01107550317681E-21  -3.19897473361410E-03  -3.19897473361410E-03  -2.39225191946599E-15   0.00000000000000E+00
      0.00000000000000E+00   0.00000000000000E+00   0.00000000000000E+00   2.52277098025401E-22   3.19897473342479E-03
      3.19897473342479E-03  -1.04799410231726E-15
      8.00000000000000E-01
     -1.00000000000000E+00  -1.00000000000000E+00   0.00000000000000E+00   0.00000000000000E+00   1.29084819239269E-34
     -1.29084819239269E-34   0.00000000000000E+00  -7.96412069897479E-17   0.00000000000000E+00   0.00000000000000E+00
      0.00000000000000E+00   0.00000000000000E+00   1.89337971580799E-13  -1.76218995113365E-19   1.89337795361804E-13
      3.44023539821299E-15  -1.00000000000000E+00  -1.00000000000000E+00   0.00000000000000E+00   0.00000000000000E+00
     -1.01495536478829E-21  -3.24513690709153E-03  -3.24513690709153E-03  -2.35195354887799E-15   0.00000000000000E+00
      0.00000000000000E+00   0.00000000000000E+00   0.00000000000000E+00   2.56033604272410E-22   3.24513690690218E-03
      3.24513690690218E-03  -1.00864064234525E-15
      9.00000000000000E-01
     -1.25000000000000E+00  -1.25000000000000E+00   0.00000000000000E+00   0.00000000000000E+00   2.92128773473533E-34
     -2.92128773473533E-34   0.00000000000000E+00  -1.60958465306707E-16   0.00000000000000E+00   0.00000000000000E+00
      0.00000000000000E+00   0.00000000000000E+00   1.89367813668405E-13   8.71159500652527E-19   1.89368684827906E-13
      3.44242777464752E-15  -1.00000000000000E+00  -1.00000000000000E+00   0.00000000000000E+00   0.00000000000000E+00
     -1.01879317560520E-21  -3.29076561196839E-03  -3.29076561196839E-03  -2.31191396485650E-15   0.00000000000000E+00
      0.00000000000000E+00   0.00000000000000E+00   0.00000000000000E+00   2.59760407660255E-22   3.29076561177901E-03
      3.29076561177901E-03  -9.69555344484315E-16
      1.00000000000000E+00
     -1.50000000000000E+00  -1.50000000000000E+00   0.00000000000000E+00   0.00000000000000E+00   7.01180896300888E-34
     -7.01180896300888E-34   0.00000000000000E+00  -2.41702202942260E-16   0.00000000000000E+00   0.00000000000000E+00
      0.00000000000000E+00   0.00000000000000E+00   1.89397203608349E-13   3.76455785257279E-18   1.89400968166202E-13
      3.44461182884980E-15  -1.00000000000000E+00  -1.00000000000000E+00   0.00000000000000E+00   0.00000000000000E+00
     -1.02258806435533E-21  -3.33582052219301E-03  -3.33582052219301E-03  -2.27215503917582E-15   0.00000000000000E+00
      0.00000000000000E+00   0.00000000000000E+00   0.00000000000000E+00   2.63491620034812E-22   3.33582052200361E-03
      3.33582052200361E-03  -9.30754586731715E-16
}
