DF-ISE text

Info {
  version   = 1.0
  type      = xyplot
  datasets  = [
    "time"
    "gate OuterVoltage" "gate InnerVoltage" "gate QuasiFermiPotential" "gate DisplacementCurrent" "gate eCurrent"
    "gate hCurrent" "gate TotalCurrent" "gate Charge" "substrate OuterVoltage" "substrate InnerVoltage"
    "substrate QuasiFermiPotential" "substrate DisplacementCurrent" "substrate eCurrent" "substrate hCurrent" "substrate TotalCurrent"
    "substrate Charge" "drain OuterVoltage" "drain InnerVoltage" "drain QuasiFermiPotential" "drain DisplacementCurrent"
    "drain eCurrent" "drain hCurrent" "drain TotalCurrent" "drain Charge" "source OuterVoltage"
    "source InnerVoltage" "source QuasiFermiPotential" "source DisplacementCurrent" "source eCurrent" "source hCurrent"
    "source TotalCurrent" "source Charge" ]
  functions = [
    Time
    OuterVoltage InnerVoltage QuasiFermiPotential DisplacementCurrent eCurrent
    hCurrent TotalCurrent Charge OuterVoltage InnerVoltage
    QuasiFermiPotential DisplacementCurrent eCurrent hCurrent TotalCurrent
    Charge OuterVoltage InnerVoltage QuasiFermiPotential DisplacementCurrent
    eCurrent hCurrent TotalCurrent Charge OuterVoltage
    InnerVoltage QuasiFermiPotential DisplacementCurrent eCurrent hCurrent
    TotalCurrent Charge ]
}

Data {
      0.00000000000000E+00
      1.00000000000000E+00   1.00000000000000E+00   0.00000000000000E+00   0.00000000000000E+00   5.09360217315665E-36
     -5.09360217315665E-36   0.00000000000000E+00   7.26311627190510E-16   0.00000000000000E+00   0.00000000000000E+00
      0.00000000000000E+00   0.00000000000000E+00   7.03127639043049E-15   2.97768114899158E-20   7.03130616724198E-15
      2.22816383540265E-15  -1.00000000000000E+00  -1.00000000000000E+00   0.00000000000000E+00   0.00000000000000E+00
     -9.08902394481899E-22  -7.03145615813427E-15  -7.03145706703667E-15  -1.83777949007587E-15   0.00000000000000E+00
      0.00000000000000E+00   0.00000000000000E+00   0.00000000000000E+00   7.38675427368099E-28   1.50899793969737E-19
      1.50899794708412E-19  -1.11669597251729E-15
      1.00000000000000E-03
      9.97500000000000E-01   9.97500000000000E-01   0.00000000000000E+00   0.00000000000000E+00   5.11271470472986E-36
     -5.11271470472986E-36   0.00000000000000E+00   7.23511850284544E-16   0.00000000000000E+00   0.00000000000000E+00
      0.00000000000000E+00   0.00000000000000E+00   7.02989020426699E-15   3.73032805654401E-20   7.02992750754755E-15
      2.22974878959524E-15  -1.00000000000000E+00  -1.00000000000000E+00   0.00000000000000E+00   0.00000000000000E+00
     -9.08808344919695E-22  -7.02994859513585E-15  -7.02994950394420E-15  -1.83716049236322E-15   0.00000000000000E+00
      0.00000000000000E+00   0.00000000000000E+00   0.00000000000000E+00   5.51318604023517E-28   2.19963960783456E-20
      2.19963966296642E-20  -1.11610014751655E-15
      2.26000000000000E-03
      9.94350000000000E-01   9.94350000000000E-01   0.00000000000000E+00   0.00000000000000E+00   5.13135244534358E-36
     -5.13135244534358E-36   0.00000000000000E+00   7.19987662697059E-16   0.00000000000000E+00   0.00000000000000E+00
      0.00000000000000E+00   0.00000000000000E+00   7.02813727729652E-15  -4.14644791980562E-20   7.02809581281732E-15
      2.23174189798875E-15  -1.00000000000000E+00  -1.00000000000000E+00   0.00000000000000E+00   0.00000000000000E+00
     -9.08902626608266E-22  -7.02819193913446E-15  -7.02819284803708E-15  -1.83638038035293E-15   0.00000000000000E+00
      0.00000000000000E+00   0.00000000000000E+00   0.00000000000000E+00  -4.33292832268660E-28   9.70352201973256E-20
      9.70352197640328E-20  -1.11534918033289E-15
      3.87280000000000E-03
      9.90318000000000E-01   9.90318000000000E-01   0.00000000000000E+00   0.00000000000000E+00   5.11258419900381E-36
     -5.11258419900381E-36   0.00000000000000E+00   7.15482458985977E-16   0.00000000000000E+00   0.00000000000000E+00
      0.00000000000000E+00   0.00000000000000E+00   7.02588485649052E-15   1.15093224514876E-19   7.02599994971504E-15
      2.23428666627908E-15  -1.00000000000000E+00  -1.00000000000000E+00   0.00000000000000E+00   0.00000000000000E+00
     -9.08930017854118E-22  -7.02608689281288E-15  -7.02608780174290E-15  -1.83538155284578E-15   0.00000000000000E+00
      0.00000000000000E+00   0.00000000000000E+00   0.00000000000000E+00  -1.15180619009253E-27   8.78520290123260E-20
      8.78520278605198E-20  -1.11438757241928E-15
      5.93718400000000E-03
      9.85157040000000E-01   9.85157040000000E-01   0.00000000000000E+00   0.00000000000000E+00   5.12802974643698E-36
     -5.12802974643698E-36   0.00000000000000E+00   7.09725250872560E-16   0.00000000000000E+00   0.00000000000000E+00
      0.00000000000000E+00   0.00000000000000E+00   7.02298723108606E-15  -2.79680135573365E-20   7.02295926307250E-15
      2.23753344752395E-15  -1.00000000000000E+00  -1.00000000000000E+00   0.00000000000000E+00   0.00000000000000E+00
     -9.08911349550935E-22  -7.02311541896329E-15  -7.02311632787464E-15  -1.83410258902452E-15   0.00000000000000E+00
      0.00000000000000E+00   0.00000000000000E+00   0.00000000000000E+00   1.64021839884378E-27   1.57064800493799E-19
      1.57064802134017E-19  -1.11315610937198E-15
      8.57959552000000E-03
      9.78551011200000E-01   9.78551011200000E-01   0.00000000000000E+00   0.00000000000000E+00   5.11560960771071E-36
     -5.11560960771071E-36   0.00000000000000E+00   7.02371553740866E-16   0.00000000000000E+00   0.00000000000000E+00
      0.00000000000000E+00   0.00000000000000E+00   7.01925498419749E-15   2.43867588450195E-20   7.01927937095633E-15
      2.24167205042273E-15  -1.00000000000000E+00  -1.00000000000000E+00   0.00000000000000E+00   0.00000000000000E+00
     -9.08902859398335E-22  -7.01937910529484E-15  -7.01938001419770E-15  -1.83246475607465E-15   0.00000000000000E+00
      0.00000000000000E+00   0.00000000000000E+00   0.00000000000000E+00   1.77394502063259E-27   1.00643239587996E-19
      1.00643241361941E-19  -1.11157884808896E-15
      1.19618822656000E-02
      9.70095294336000E-01   9.70095294336000E-01   0.00000000000000E+00   0.00000000000000E+00   5.14282009275042E-36
     -5.14282009275042E-36   0.00000000000000E+00   6.92984345223079E-16   0.00000000000000E+00   0.00000000000000E+00
      0.00000000000000E+00   0.00000000000000E+00   7.01444145850301E-15  -1.89505410857794E-19   7.01425195309215E-15
      2.24694108441355E-15  -1.00000000000000E+00  -1.00000000000000E+00   0.00000000000000E+00   0.00000000000000E+00
     -9.08902972329205E-22  -7.01445604108860E-15  -7.01445694999157E-15  -1.83036709016910E-15   0.00000000000000E+00
      0.00000000000000E+00   0.00000000000000E+00   0.00000000000000E+00   6.69351102214080E-28   2.04996898753642E-19
      2.04996899422993E-19  -1.10955833946753E-15
      1.62912092999680E-02
      9.59271976750080E-01   9.59271976750080E-01   0.00000000000000E+00   0.00000000000000E+00   5.10584633952190E-36
     -5.10584633952190E-36   0.00000000000000E+00   6.81010684880096E-16   0.00000000000000E+00   0.00000000000000E+00
      0.00000000000000E+00   0.00000000000000E+00   7.00821713277792E-15   9.49640698323787E-20   7.00831209684775E-15
      2.25363882695323E-15  -1.00000000000000E+00  -1.00000000000000E+00   0.00000000000000E+00   0.00000000000000E+00
     -9.08903116040418E-22  -7.00836621491861E-15  -7.00836712382172E-15  -1.82768005586348E-15   0.00000000000000E+00
      0.00000000000000E+00   0.00000000000000E+00   0.00000000000000E+00   7.12615359498513E-28   5.50269732554069E-20
      5.50269739680223E-20  -1.10696945596984E-15
      2.18327479039590E-02
      9.45418130240102E-01   9.45418130240102E-01   0.00000000000000E+00   0.00000000000000E+00   5.11380360024467E-36
     -5.11380360024467E-36   0.00000000000000E+00   6.65753410532403E-16   0.00000000000000E+00   0.00000000000000E+00
      0.00000000000000E+00   0.00000000000000E+00   7.00016624284904E-15  -3.03393040899582E-19   6.99986284980814E-15
      2.26213534829625E-15  -1.00000000000000E+00  -1.00000000000000E+00   0.00000000000000E+00   0.00000000000000E+00
     -9.08903293652319E-22  -7.00014317478033E-15  -7.00014408368362E-15  -1.82423735943229E-15   0.00000000000000E+00
      0.00000000000000E+00   0.00000000000000E+00   0.00000000000000E+00  -4.58513703675957E-29   2.81233875518768E-19
      2.81233875472917E-19  -1.10365139939636E-15
      2.89259173170676E-02
      9.27685206707331E-01   9.27685206707331E-01   0.00000000000000E+00   0.00000000000000E+00   4.95913089474540E-36
     -4.95913089474540E-36   0.00000000000000E+00   6.46337533796571E-16   0.00000000000000E+00   0.00000000000000E+00
      0.00000000000000E+00   0.00000000000000E+00   6.98974169211671E-15  -5.97256963135173E-19   6.98914443515357E-15
      2.27288515172609E-15  -1.00000000000000E+00  -1.00000000000000E+00   0.00000000000000E+00   0.00000000000000E+00
     -9.08903522930945E-22  -6.98984241351984E-15  -6.98984332242336E-15  -1.81982535831008E-15   0.00000000000000E+00
      0.00000000000000E+00   0.00000000000000E+00   0.00000000000000E+00  -1.07727830447214E-27   6.98887270856491E-19
      6.98887269779213E-19  -1.09939732721257E-15
      3.80051741658465E-02
      9.04987064585384E-01   9.04987064585384E-01   0.00000000000000E+00   0.00000000000000E+00   5.04441838191381E-36
     -5.04441838191381E-36   0.00000000000000E+00   6.21671373169024E-16   0.00000000000000E+00   0.00000000000000E+00
      0.00000000000000E+00   0.00000000000000E+00   6.97624270433771E-15  -4.56219551733544E-18   6.97168050882037E-15
      2.28643881265596E-15  -1.00000000000000E+00  -1.00000000000000E+00   0.00000000000000E+00   0.00000000000000E+00
     -9.08903808344363E-22  -6.97638307184848E-15  -6.97638398075229E-15  -1.81416933188947E-15   0.00000000000000E+00
      0.00000000000000E+00   0.00000000000000E+00   0.00000000000000E+00  -5.33318303053533E-28   4.70347193246826E-18
      4.70347193193494E-18  -1.09394085393551E-15
      4.96266229322835E-02
      8.75933442669291E-01   8.75933442669291E-01   0.00000000000000E+00   0.00000000000000E+00   4.98370350865178E-36
     -4.98370350865178E-36   0.00000000000000E+00   5.90403062708567E-16   0.00000000000000E+00   0.00000000000000E+00
      0.00000000000000E+00   0.00000000000000E+00   6.95879462883167E-15   1.50785473569923E-19   6.95894541430524E-15
      2.30345103128111E-15  -1.00000000000000E+00  -1.00000000000000E+00   0.00000000000000E+00   0.00000000000000E+00
     -9.08904175209197E-22  -6.95887783407409E-15  -6.95887874297826E-15  -1.80691564625892E-15   0.00000000000000E+00
      0.00000000000000E+00   0.00000000000000E+00   0.00000000000000E+00  -6.23643697975044E-29  -6.66713269110782E-20
     -6.66713269734425E-20  -1.08693844773076E-15
      6.42696483779942E-02
      8.39325879055015E-01   8.39325879055015E-01   0.00000000000000E+00   0.00000000000000E+00   5.01888679576938E-36
     -5.01888679576938E-36   0.00000000000000E+00   5.51486901741157E-16   0.00000000000000E+00   0.00000000000000E+00
      0.00000000000000E+00   0.00000000000000E+00   6.93668168723584E-15  -1.12538848446346E-19   6.93656914838739E-15
      2.32435445153793E-15  -1.00000000000000E+00  -1.00000000000000E+00   0.00000000000000E+00   0.00000000000000E+00
     -9.08904624678626E-22  -6.93674971503137E-15  -6.93675062393599E-15  -1.79775415906554E-15   0.00000000000000E+00
      0.00000000000000E+00   0.00000000000000E+00   0.00000000000000E+00  -8.78470685137790E-28   1.81475549491908E-19
      1.81475548613437E-19  -1.07808719421354E-15
      8.27198604395896E-02
      7.93200348901026E-01   7.93200348901026E-01   0.00000000000000E+00   0.00000000000000E+00   5.01229550113040E-36
     -5.01229550113040E-36   0.00000000000000E+00   5.03199780296996E-16   0.00000000000000E+00   0.00000000000000E+00
      0.00000000000000E+00   0.00000000000000E+00   6.90877319129395E-15   1.92132894714418E-19   6.90896532418867E-15
      2.34986877378079E-15  -1.00000000000000E+00  -1.00000000000000E+00   0.00000000000000E+00   0.00000000000000E+00
     -9.08905176364339E-22  -6.90896467648594E-15  -6.90896558539111E-15  -1.78617707093424E-15   0.00000000000000E+00
      0.00000000000000E+00   0.00000000000000E+00   0.00000000000000E+00   1.54406042308617E-27   2.61200885245621E-22
      2.61202429306044E-22  -1.06689148314352E-15
      1.00000000000000E-01
      7.50000000000000E-01   7.50000000000000E-01   0.00000000000000E+00   0.00000000000000E+00   4.98091174857634E-36
     -4.98091174857634E-36   0.00000000000000E+00   4.58700274018366E-16   0.00000000000000E+00   0.00000000000000E+00
      0.00000000000000E+00   0.00000000000000E+00   6.88254358035925E-15   6.55855660043511E-21   6.88255013891585E-15
      2.37296544742039E-15  -1.00000000000000E+00  -1.00000000000000E+00   0.00000000000000E+00   0.00000000000000E+00
     -9.08905679784722E-22  -6.88262640555051E-15  -6.88262731445619E-15  -1.77530146574040E-15   0.00000000000000E+00
      0.00000000000000E+00   0.00000000000000E+00   0.00000000000000E+00   5.52246976621668E-29   7.71755402853476E-20
      7.71755403405723E-20  -1.05636425569836E-15
      1.23247267197610E-01
      6.91881832005974E-01   6.91881832005974E-01   0.00000000000000E+00   0.00000000000000E+00   5.11425789931994E-36
     -5.11425789931994E-36   0.00000000000000E+00   3.99870961496426E-16   0.00000000000000E+00   0.00000000000000E+00
      0.00000000000000E+00   0.00000000000000E+00   6.84670223172767E-15   8.04272195532234E-20   6.84678265894722E-15
      2.40289423896947E-15  -1.00000000000000E+00  -1.00000000000000E+00   0.00000000000000E+00   0.00000000000000E+00
     -9.08906337718620E-22  -6.84698736731049E-15  -6.84698827621683E-15  -1.76062276226264E-15   0.00000000000000E+00
      0.00000000000000E+00   0.00000000000000E+00   0.00000000000000E+00  -5.43810304138171E-28   2.05617270118635E-19
      2.05617269574825E-19  -1.04214243820326E-15
      1.52538823866599E-01
      6.18652940333502E-01   6.18652940333502E-01   0.00000000000000E+00   0.00000000000000E+00   5.10849226662397E-36
     -5.10849226662397E-36   0.00000000000000E+00   3.27283793930142E-16   0.00000000000000E+00   0.00000000000000E+00
      0.00000000000000E+00   0.00000000000000E+00   6.80013875980737E-15   7.40981013007938E-20   6.80021285790867E-15
      2.43890458476832E-15  -1.00000000000000E+00  -1.00000000000000E+00   0.00000000000000E+00   0.00000000000000E+00
     -9.08907127219139E-22  -6.80031426202624E-15  -6.80031517093337E-15  -1.74205436181941E-15   0.00000000000000E+00
      0.00000000000000E+00   0.00000000000000E+00   0.00000000000000E+00   2.09719542172553E-27   1.02313022594202E-19
      1.02313024691397E-19  -1.02413401687906E-15
      1.89446185269525E-01
      5.26384536826187E-01   5.26384536826187E-01   0.00000000000000E+00   0.00000000000000E+00   5.10030178818108E-36
     -5.10030178818108E-36   0.00000000000000E+00   2.37948302879379E-16   0.00000000000000E+00   0.00000000000000E+00
      0.00000000000000E+00   0.00000000000000E+00   6.73935448504588E-15   5.25090929533124E-20   6.73940699413883E-15
      2.48192050051354E-15  -1.00000000000000E+00  -1.00000000000000E+00   0.00000000000000E+00   0.00000000000000E+00
     -9.08908076583225E-22  -6.73969740244558E-15  -6.73969831135365E-15  -1.71855029594195E-15   0.00000000000000E+00
      0.00000000000000E+00   0.00000000000000E+00   0.00000000000000E+00  -4.56659655906115E-28   2.91317215265966E-19
      2.91317214809307E-19  -1.00131850745095E-15
      2.00000000000000E-01
      5.00000000000000E-01   5.00000000000000E-01   0.00000000000000E+00   0.00000000000000E+00   5.08379658007053E-36
     -5.08379658007053E-36   0.00000000000000E+00   2.12786931829818E-16   0.00000000000000E+00   0.00000000000000E+00
      0.00000000000000E+00   0.00000000000000E+00   6.72152109923248E-15   9.64907009458378E-20   6.72161758993343E-15
      2.49379299984476E-15  -1.00000000000000E+00  -1.00000000000000E+00   0.00000000000000E+00   0.00000000000000E+00
     -9.08908336797508E-22  -6.72206282081859E-15  -6.72206372972693E-15  -1.71180841367177E-15   0.00000000000000E+00
      0.00000000000000E+00   0.00000000000000E+00   0.00000000000000E+00   2.39014337674481E-27   4.46139791110773E-19
      4.46139793500917E-19  -9.94771518002824E-16
      2.22882564069814E-01
      4.42793589825465E-01   4.42793589825465E-01   0.00000000000000E+00   0.00000000000000E+00   5.01024108314131E-36
     -5.01024108314131E-36   0.00000000000000E+00   1.58757887605073E-16   0.00000000000000E+00   0.00000000000000E+00
      0.00000000000000E+00   0.00000000000000E+00   6.68234258589440E-15   2.49669645867710E-21   6.68234508259086E-15
      2.51894827505519E-15  -1.00000000000000E+00  -1.00000000000000E+00   0.00000000000000E+00   0.00000000000000E+00
     -9.08908887318575E-22  -6.68331852789615E-15  -6.68331943680503E-15  -1.69716066069312E-15   0.00000000000000E+00
      0.00000000000000E+00   0.00000000000000E+00   0.00000000000000E+00   4.94946985902390E-28   9.74354213700795E-19
      9.74354214195742E-19  -9.80545501967144E-16
      2.51256943516384E-01
      3.71857641209041E-01   3.71857641209041E-01   0.00000000000000E+00   0.00000000000000E+00   5.00050383103449E-36
     -5.00050383103449E-36   0.00000000000000E+00   9.26723097685459E-17   0.00000000000000E+00   0.00000000000000E+00
      0.00000000000000E+00   0.00000000000000E+00   6.63335577299584E-15  -4.83798115292829E-20   6.63330739318431E-15
      2.54912302011525E-15  -1.00000000000000E+00  -1.00000000000000E+00   0.00000000000000E+00   0.00000000000000E+00
     -9.08909522417839E-22  -6.63649753904103E-15  -6.63649844795055E-15  -1.67894251791113E-15   0.00000000000000E+00
      0.00000000000000E+00   0.00000000000000E+00   0.00000000000000E+00   3.22388097327746E-29   3.19105476620103E-18
      3.19105476623327E-18  -9.62852811972670E-16
      2.87008661619061E-01
      2.82478345952347E-01   2.82478345952347E-01   0.00000000000000E+00   0.00000000000000E+00   4.90721987042787E-36
     -4.90721987042787E-36   0.00000000000000E+00   1.06723912871395E-17   0.00000000000000E+00   0.00000000000000E+00
      0.00000000000000E+00   0.00000000000000E+00   6.57228977002827E-15  -2.49501783425344E-19   6.57204026824484E-15
      2.58572531580070E-15  -1.00000000000000E+00  -1.00000000000000E+00   0.00000000000000E+00   0.00000000000000E+00
     -9.08910335959888E-22  -6.58509598060637E-15  -6.58509688951671E-15  -1.65590568435247E-15   0.00000000000000E+00
      0.00000000000000E+00   0.00000000000000E+00   0.00000000000000E+00   1.64242706537757E-28   1.30566212717018E-17
      1.30566212718661E-17  -9.40492022735370E-16
      3.00000000000000E-01
      2.50000000000000E-01   2.50000000000000E-01   0.00000000000000E+00   0.00000000000000E+00   4.98913846455755E-36
     -4.98913846455755E-36   0.00000000000000E+00  -1.88092366587843E-17   0.00000000000000E+00   0.00000000000000E+00
      0.00000000000000E+00   0.00000000000000E+00   6.55091325013719E-15   8.04277594357827E-20   6.55099367789662E-15
      2.59867383940316E-15  -1.00000000000000E+00  -1.00000000000000E+00   0.00000000000000E+00   0.00000000000000E+00
     -9.08910611343545E-22  -6.57327901266076E-15  -6.57327992157137E-15  -1.64751298644418E-15   0.00000000000000E+00
      0.00000000000000E+00   0.00000000000000E+00   0.00000000000000E+00   2.29216574809308E-27   2.22862436724592E-17
      2.22862436747514E-17  -9.32351616300200E-16
      3.45047164809374E-01
      1.37382087976565E-01   1.37382087976565E-01   0.00000000000000E+00   0.00000000000000E+00   4.95154472783834E-36
     -4.95154472783834E-36   0.00000000000000E+00  -1.19880848937368E-16   0.00000000000000E+00   0.00000000000000E+00
      0.00000000000000E+00   0.00000000000000E+00   6.48304314381267E-15  -1.58114025507789E-19   6.48288502978716E-15
      2.64229090082038E-15  -1.00000000000000E+00  -1.00000000000000E+00   0.00000000000000E+00   0.00000000000000E+00
     -9.08911527024019E-22  -6.65050824825802E-15  -6.65050915716955E-15  -1.61832637978818E-15   0.00000000000000E+00
      0.00000000000000E+00   0.00000000000000E+00   0.00000000000000E+00  -6.21337169115021E-28   1.67624127383003E-16
      1.67624127382382E-16  -9.04083672094816E-16
      4.00000000000000E-01
      0.00000000000000E+00   0.00000000000000E+00   0.00000000000000E+00   0.00000000000000E+00   5.05284396523489E-36
     -5.05284396523489E-36   0.00000000000000E+00  -2.41047563397399E-16   0.00000000000000E+00   0.00000000000000E+00
      0.00000000000000E+00   0.00000000000000E+00   6.41669021203685E-15  -5.50873570174434E-20   6.41663512467983E-15
      2.69317397755733E-15  -1.00000000000000E+00  -1.00000000000000E+00   0.00000000000000E+00   0.00000000000000E+00
     -9.08912557437358E-22  -8.70269688422244E-15  -8.70269779313500E-15  -1.58255199595431E-15   0.00000000000000E+00
      0.00000000000000E+00   0.00000000000000E+00   0.00000000000000E+00  -6.08532221211854E-29   2.28606266845521E-15
      2.28606266845515E-15  -8.69574418205622E-16
      4.55858484363623E-01
     -1.39646210909059E-01  -1.39646210909059E-01   0.00000000000000E+00   0.00000000000000E+00   5.02277395723101E-36
     -5.02277395723101E-36   0.00000000000000E+00  -3.62177393359556E-16   0.00000000000000E+00   0.00000000000000E+00
      0.00000000000000E+00   0.00000000000000E+00   6.37225825518157E-15   2.79140850162723E-19   6.37253739603174E-15
      2.74277414512582E-15  -1.00000000000000E+00  -1.00000000000000E+00   0.00000000000000E+00   0.00000000000000E+00
     -9.08913518168063E-22  -4.38835320983381E-14  -4.38835330072516E-14  -1.54600904644226E-15   0.00000000000000E+00
      0.00000000000000E+00   0.00000000000000E+00   0.00000000000000E+00  -3.81199248155848E-28   3.75109956112201E-14
      3.75109956112197E-14  -8.34587705324010E-16
      5.00000000000000E-01
     -2.50000000000000E-01  -2.50000000000000E-01   0.00000000000000E+00   0.00000000000000E+00   5.04586570075111E-36
     -5.04586570075111E-36   0.00000000000000E+00  -4.56655568282050E-16   0.00000000000000E+00   0.00000000000000E+00
      0.00000000000000E+00   0.00000000000000E+00   6.35043209531047E-15   9.03444591001038E-20   6.35052243976957E-15
      2.78078772755964E-15  -1.00000000000000E+00  -1.00000000000000E+00   0.00000000000000E+00   0.00000000000000E+00
     -9.08914213384327E-22  -3.78811082429826E-13  -3.78811083338740E-13  -1.51701174403493E-15   0.00000000000000E+00
      0.00000000000000E+00   0.00000000000000E+00   0.00000000000000E+00   1.16534728811928E-28   3.72460560898970E-13
      3.72460560898970E-13  -8.07120415242677E-16
      5.69264520610893E-01
     -4.23161301527233E-01  -4.23161301527233E-01   0.00000000000000E+00   0.00000000000000E+00   2.34273224128160E-36
     -2.34273224128160E-36   0.00000000000000E+00  -6.03091308414018E-16   0.00000000000000E+00   0.00000000000000E+00
      0.00000000000000E+00   0.00000000000000E+00   6.34358740796881E-15  -1.71324174480228E-19   6.34341608379433E-15
      2.83907525738868E-15  -1.00000000000000E+00  -1.00000000000000E+00   0.00000000000000E+00   0.00000000000000E+00
     -9.08915204867412E-22  -1.54834505935620E-11  -1.54834505944709E-11  -1.47131426734439E-15   0.00000000000000E+00
      0.00000000000000E+00   0.00000000000000E+00   0.00000000000000E+00  -2.33668610719724E-27   1.54771071783871E-11
      1.54771071783871E-11  -7.64669681630275E-16
      6.00000000000000E-01
     -5.00000000000000E-01  -5.00000000000000E-01   0.00000000000000E+00   0.00000000000000E+00   5.17824480747051E-36
     -5.17824480747051E-36   0.00000000000000E+00  -6.67527454040175E-16   0.00000000000000E+00   0.00000000000000E+00
      0.00000000000000E+00   0.00000000000000E+00   6.32708940662362E-15  -5.75649902485423E-19   6.32651375672114E-15
      2.86473203037526E-15  -1.00000000000000E+00  -1.00000000000000E+00   0.00000000000000E+00   0.00000000000000E+00
     -9.08915613724499E-22  -8.42080034682842E-11  -8.42080034691931E-11  -1.45096582694916E-15   0.00000000000000E+00
      0.00000000000000E+00   0.00000000000000E+00   0.00000000000000E+00   1.21496311497177E-27   8.42016769554368E-11
      8.42016769554368E-11  -7.46238749385900E-16
      6.84502715145289E-01
     -7.11256787863224E-01  -7.11256787863224E-01   0.00000000000000E+00   0.00000000000000E+00   2.26842139179409E-36
     -2.26842139179409E-36   0.00000000000000E+00  -8.44232084044110E-16   0.00000000000000E+00   0.00000000000000E+00
      0.00000000000000E+00   0.00000000000000E+00   6.26576521423246E-15   1.12562585469847E-18   6.26689084008716E-15
      2.93675807452094E-15  -1.00000000000000E+00  -1.00000000000000E+00   0.00000000000000E+00   0.00000000000000E+00
     -9.08917388128826E-22  -9.49861497055926E-09  -9.49861497056016E-09  -1.39483020217016E-15   0.00000000000000E+00
      0.00000000000000E+00   0.00000000000000E+00   0.00000000000000E+00   7.49843170076779E-28   9.49860870366936E-09
      9.49860870366936E-09  -6.97695788306685E-16
      7.00000000000000E-01
     -7.50000000000000E-01  -7.50000000000000E-01   0.00000000000000E+00   0.00000000000000E+00   8.15650792559494E-36
     -8.15650792559494E-36   0.00000000000000E+00  -8.76929853488344E-16   0.00000000000000E+00   0.00000000000000E+00
      0.00000000000000E+00   0.00000000000000E+00   6.25250929211916E-15   5.98298368465870E-19   6.25310759048763E-15
      2.95068596825495E-15  -1.00000000000000E+00  -1.00000000000000E+00   0.00000000000000E+00   0.00000000000000E+00
     -9.08918606336322E-22  -2.24034865112830E-08  -2.24034865112839E-08  -1.38451255070403E-15   0.00000000000000E+00
      0.00000000000000E+00   0.00000000000000E+00   0.00000000000000E+00   5.68097167336236E-28   2.24034802581765E-08
      2.24034802581765E-08  -6.89243564062596E-16
      7.25000000000000E-01
     -8.12500000000000E-01  -8.12500000000000E-01   0.00000000000000E+00   0.00000000000000E+00   5.17256943917410E-36
     -5.17256943917410E-36   0.00000000000000E+00  -9.30469035123148E-16   0.00000000000000E+00   0.00000000000000E+00
      0.00000000000000E+00   0.00000000000000E+00   6.22817739268480E-15   1.99692452549626E-19   6.22837708513735E-15
      2.97430124557486E-15  -1.00000000000000E+00  -1.00000000000000E+00   0.00000000000000E+00   0.00000000000000E+00
     -9.08923981821992E-22  -8.52677524893352E-08  -8.52677524893361E-08  -1.36786931047471E-15   0.00000000000000E+00
      0.00000000000000E+00   0.00000000000000E+00   0.00000000000000E+00   6.95630104375901E-27   8.52677462609595E-08
      8.52677462609595E-08  -6.75962899977021E-16
      7.55000000000000E-01
     -8.87500000000000E-01  -8.87500000000000E-01   0.00000000000000E+00   0.00000000000000E+00   5.16133488208600E-36
     -5.16133488208600E-36   0.00000000000000E+00  -9.97150684578068E-16   0.00000000000000E+00   0.00000000000000E+00
      0.00000000000000E+00   0.00000000000000E+00   6.22098664134518E-15   7.64122389914679E-19   6.22175076373510E-15
      3.00569204670079E-15  -1.00000000000000E+00  -1.00000000000000E+00   0.00000000000000E+00   0.00000000000000E+00
     -9.08946240530358E-22  -3.55196735068264E-07  -3.55196735068265E-07  -1.34794887862868E-15   0.00000000000000E+00
      0.00000000000000E+00   0.00000000000000E+00   0.00000000000000E+00   2.66697125919985E-26   3.55196728846516E-07
      3.55196728846516E-07  -6.60592483494069E-16
      7.92200000000000E-01
     -9.80500000000000E-01  -9.80500000000000E-01   0.00000000000000E+00   0.00000000000000E+00   5.18166437355424E-36
     -5.18166437355424E-36   0.00000000000000E+00  -1.08514489161228E-15   0.00000000000000E+00   0.00000000000000E+00
      0.00000000000000E+00   0.00000000000000E+00   6.24044341268603E-15  -1.30215483981756E-18   6.23914125784621E-15
      3.05081671199484E-15  -1.00000000000000E+00  -1.00000000000000E+00   0.00000000000000E+00   0.00000000000000E+00
     -9.09028421855518E-22  -1.36111612324452E-06  -1.36111612324452E-06  -1.32347187018150E-15   0.00000000000000E+00
      0.00000000000000E+00   0.00000000000000E+00   0.00000000000000E+00   1.01655589750591E-25   1.36111611700539E-06
      1.36111611700539E-06  -6.42199950201068E-16
      8.00000000000000E-01
     -1.00000000000000E+00  -1.00000000000000E+00   0.00000000000000E+00   0.00000000000000E+00   5.16880946523762E-36
     -5.16880946523762E-36   0.00000000000000E+00  -1.10433024501736E-15   0.00000000000000E+00   0.00000000000000E+00
      0.00000000000000E+00   0.00000000000000E+00   6.24664089806966E-15  -7.00030474927189E-19   6.24594086759473E-15
      3.06112420041106E-15  -1.00000000000000E+00  -1.00000000000000E+00   0.00000000000000E+00   0.00000000000000E+00
     -9.09056119066804E-22  -1.70066913255754E-06  -1.70066913255754E-06  -1.31838489787120E-15   0.00000000000000E+00
      0.00000000000000E+00   0.00000000000000E+00   0.00000000000000E+00   1.26403149497618E-25   1.70066912631160E-06
      1.70066912631160E-06  -6.38409057522511E-16
      8.46128000000000E-01
     -1.11532000000000E+00  -1.11532000000000E+00   0.00000000000000E+00   0.00000000000000E+00   5.16189511685411E-36
     -5.16189511685411E-36   0.00000000000000E+00  -1.22187073964257E-15   0.00000000000000E+00   0.00000000000000E+00
      0.00000000000000E+00   0.00000000000000E+00   6.29134181245594E-15  -1.79163908387705E-16   6.11217790406823E-15
      3.12682875573138E-15  -1.00000000000000E+00  -1.00000000000000E+00   0.00000000000000E+00   0.00000000000000E+00
     -9.09300664285691E-22  -4.70110408846184E-06  -4.70110408846184E-06  -1.28866460786121E-15   0.00000000000000E+00
      0.00000000000000E+00   0.00000000000000E+00   0.00000000000000E+00   3.50729007725658E-25   4.70110408234972E-06
      4.70110408234972E-06  -6.16293408227606E-16
      9.00000000000000E-01
     -1.25000000000000E+00  -1.25000000000000E+00   0.00000000000000E+00   0.00000000000000E+00   5.20338798236675E-36