DF-ISE text

Info {
  version   = 1.0
  type      = xyplot
  datasets  = [
    "time"
    "gate OuterVoltage" "gate InnerVoltage" "gate QuasiFermiPotential" "gate DisplacementCurrent" "gate eCurrent"
    "gate hCurrent" "gate TotalCurrent" "gate Charge" "substrate OuterVoltage" "substrate InnerVoltage"
    "substrate QuasiFermiPotential" "substrate DisplacementCurrent" "substrate eCurrent" "substrate hCurrent" "substrate TotalCurrent"
    "substrate Charge" "drain OuterVoltage" "drain InnerVoltage" "drain QuasiFermiPotential" "drain DisplacementCurrent"
    "drain eCurrent" "drain hCurrent" "drain TotalCurrent" "drain Charge" "source OuterVoltage"
    "source InnerVoltage" "source QuasiFermiPotential" "source DisplacementCurrent" "source eCurrent" "source hCurrent"
    "source TotalCurrent" "source Charge" ]
  functions = [
    Time
    OuterVoltage InnerVoltage QuasiFermiPotential DisplacementCurrent eCurrent
    hCurrent TotalCurrent Charge OuterVoltage InnerVoltage
    QuasiFermiPotential DisplacementCurrent eCurrent hCurrent TotalCurrent
    Charge OuterVoltage InnerVoltage QuasiFermiPotential DisplacementCurrent
    eCurrent hCurrent TotalCurrent Charge OuterVoltage
    InnerVoltage QuasiFermiPotential DisplacementCurrent eCurrent hCurrent
    TotalCurrent Charge ]
}

Data {
      0.00000000000000E+00
      1.00000000000000E+00   1.00000000000000E+00   0.00000000000000E+00   0.00000000000000E+00   2.09401852303208E-37
     -2.09401852303208E-37   0.00000000000000E+00   7.44800887860159E-16   0.00000000000000E+00   0.00000000000000E+00
      0.00000000000000E+00   0.00000000000000E+00   1.49741114592528E-12   1.43439156629686E-18   1.49741258031685E-12
      9.83473785047404E-15  -1.00000000000000E+00  -1.00000000000000E+00   0.00000000000000E+00   0.00000000000000E+00
     -8.71932664712445E-22  -3.68177723930291E-04  -3.68177723930291E-04  -6.38581318532127E-15   0.00000000000000E+00
      0.00000000000000E+00   0.00000000000000E+00   0.00000000000000E+00   5.22488683304433E-23   3.68177722432880E-04
      3.68177722432880E-04  -4.19372555301292E-15
      1.00000000000000E-03
      9.97500000000000E-01   9.97500000000000E-01   0.00000000000000E+00   0.00000000000000E+00   3.28328738839139E-35
     -3.28328738839139E-35   0.00000000000000E+00   7.43535779986945E-16   0.00000000000000E+00   0.00000000000000E+00
      0.00000000000000E+00   0.00000000000000E+00   1.49743207999221E-12   5.62350461965842E-14   1.55366712618879E-12
      9.83478715246303E-15  -1.00000000000000E+00  -1.00000000000000E+00   0.00000000000000E+00   0.00000000000000E+00
     -8.70843684790182E-22  -3.68398813240316E-04  -3.68398813240316E-04  -6.38504475494925E-15   0.00000000000000E+00
      0.00000000000000E+00   0.00000000000000E+00   0.00000000000000E+00   2.24102430469631E-22   3.68398811686650E-04
      3.68398811686650E-04  -4.19327817750075E-15
      2.30000000000000E-03
      9.94250000000000E-01   9.94250000000000E-01   0.00000000000000E+00   0.00000000000000E+00   6.58231823255444E-37
     -6.58231823255444E-37   0.00000000000000E+00   7.41891159053719E-16   0.00000000000000E+00   0.00000000000000E+00
      0.00000000000000E+00   0.00000000000000E+00   1.49745930682428E-12  -1.28436445126653E-15   1.49617494237302E-12
      9.83485126923015E-15  -1.00000000000000E+00  -1.00000000000000E+00   0.00000000000000E+00   0.00000000000000E+00
     -8.71959015591849E-22  -3.68686403863501E-04  -3.68686403863501E-04  -6.38404565446827E-15   0.00000000000000E+00
      0.00000000000000E+00   0.00000000000000E+00   0.00000000000000E+00   5.51474165473037E-23   3.68686402367328E-04
      3.68686402367328E-04  -4.19269677381561E-15
      3.99000000000000E-03
      9.90025000000000E-01   9.90025000000000E-01   0.00000000000000E+00   0.00000000000000E+00   1.49446611339563E-36
     -1.49446611339563E-36   0.00000000000000E+00   7.39753184524838E-16   0.00000000000000E+00   0.00000000000000E+00
      0.00000000000000E+00   0.00000000000000E+00   1.49749472292096E-12  -2.39307608294376E-15   1.49510164683801E-12
      9.83493466409278E-15  -1.00000000000000E+00  -1.00000000000000E+00   0.00000000000000E+00   0.00000000000000E+00
     -8.71914207738572E-22  -3.69060576104401E-04  -3.69060576104401E-04  -6.38274657831750E-15   0.00000000000000E+00
      0.00000000000000E+00   0.00000000000000E+00   0.00000000000000E+00   6.04391751625588E-23   3.69060574609302E-04
      3.69060574609302E-04  -4.19194127030011E-15
      6.18700000000000E-03
      9.84532500000000E-01   9.84532500000000E-01   0.00000000000000E+00   0.00000000000000E+00   3.91444649350622E-36
     -3.91444649350622E-36   0.00000000000000E+00   7.36973872886033E-16   0.00000000000000E+00   0.00000000000000E+00
      0.00000000000000E+00   0.00000000000000E+00   1.49754080363934E-12   1.50933381587343E-15   1.49905013745522E-12
      9.83504315886895E-15  -1.00000000000000E+00  -1.00000000000000E+00   0.00000000000000E+00   0.00000000000000E+00
     -8.71658204075026E-22  -3.69547556509367E-04  -3.69547556509367E-04  -6.38105733580383E-15   0.00000000000000E+00
      0.00000000000000E+00   0.00000000000000E+00   0.00000000000000E+00   7.46722470525446E-23   3.69547555010319E-04
      3.69547555010319E-04  -4.19095969595116E-15
      9.04310000000000E-03
      9.77392250000000E-01   9.77392250000000E-01   0.00000000000000E+00   0.00000000000000E+00   1.08434552448561E-35
     -1.08434552448561E-35   0.00000000000000E+00   7.33360859894799E-16   0.00000000000000E+00   0.00000000000000E+00
      0.00000000000000E+00   0.00000000000000E+00   1.49760079394363E-12   8.85850620206888E-14   1.58618585596432E-12
      9.83518438295385E-15  -1.00000000000000E+00  -1.00000000000000E+00   0.00000000000000E+00   0.00000000000000E+00
     -8.70421567846749E-22  -3.70181777974976E-04  -3.70181777974976E-04  -6.37886042742770E-15   0.00000000000000E+00
      0.00000000000000E+00   0.00000000000000E+00   0.00000000000000E+00   1.18899821712768E-22   3.70181776388792E-04
      3.70181776388792E-04  -4.18968481542096E-15
      1.27560300000000E-02
      9.68109925000000E-01   9.68109925000000E-01   0.00000000000000E+00   0.00000000000000E+00   2.04573158684368E-37
     -2.04573158684368E-37   0.00000000000000E+00   7.28664159330508E-16   0.00000000000000E+00   0.00000000000000E+00
      0.00000000000000E+00   0.00000000000000E+00   1.49767819933412E-12   7.47268170456581E-19   1.49767894660229E-12
      9.83536669583714E-15  -1.00000000000000E+00  -1.00000000000000E+00   0.00000000000000E+00   0.00000000000000E+00
     -8.72364059678815E-22  -3.71000860545264E-04  -3.71000860545264E-04  -6.37600827388768E-15   0.00000000000000E+00
      0.00000000000000E+00   0.00000000000000E+00   0.00000000000000E+00   5.29862344064718E-23   3.71000859047587E-04
      3.71000859047587E-04  -4.18802258127997E-15
      1.75085804000000E-02
      9.56228549000000E-01   9.56228549000000E-01   0.00000000000000E+00   0.00000000000000E+00   8.21589844771930E-35
     -8.21589844771930E-35   0.00000000000000E+00   7.22652829362790E-16   0.00000000000000E+00   0.00000000000000E+00
      0.00000000000000E+00   0.00000000000000E+00   1.49777735608993E-12   4.75101169434512E-14   1.54528747303339E-12
      9.83559967247783E-15  -1.00000000000000E+00  -1.00000000000000E+00   0.00000000000000E+00   0.00000000000000E+00
     -8.67486148137725E-22  -3.72047460009709E-04  -3.72047460009709E-04  -6.37235788976405E-15   0.00000000000000E+00
      0.00000000000000E+00   0.00000000000000E+00   0.00000000000000E+00   4.77495463119387E-22   3.72047458464423E-04
      3.72047458464423E-04  -4.18589461207658E-15
      2.36868959200000E-02
      9.40782760200000E-01   9.40782760200000E-01   0.00000000000000E+00   0.00000000000000E+00   2.07731278941705E-37
     -2.07731278941705E-37   0.00000000000000E+00   7.14838332393067E-16   0.00000000000000E+00   0.00000000000000E+00
      0.00000000000000E+00   0.00000000000000E+00   1.49790634472903E-12   8.49950679439478E-19   1.49790719467971E-12
      9.83590255042140E-15  -1.00000000000000E+00  -1.00000000000000E+00   0.00000000000000E+00   0.00000000000000E+00
     -8.72732434494778E-22  -3.73410703608541E-04  -3.73410703608541E-04  -6.36760936072042E-15   0.00000000000000E+00
      0.00000000000000E+00   0.00000000000000E+00   0.00000000000000E+00   5.34661492709378E-23   3.73410702110635E-04
      3.73410702110635E-04  -4.18313152209405E-15
      3.15951397856000E-02
      9.21012150536000E-01   9.21012150536000E-01   0.00000000000000E+00   0.00000000000000E+00   1.92934466475491E-37
     -1.92934466475491E-37   0.00000000000000E+00   7.04836632121797E-16   0.00000000000000E+00   0.00000000000000E+00
      0.00000000000000E+00   0.00000000000000E+00   1.49807173393295E-12   8.33600009412770E-19   1.49807256753296E-12
      9.83629071203402E-15  -1.00000000000000E+00  -1.00000000000000E+00   0.00000000000000E+00   0.00000000000000E+00
     -8.73000035363493E-22  -3.75160327219542E-04  -3.75160327219542E-04  -6.36152740908295E-15   0.00000000000000E+00
      0.00000000000000E+00   0.00000000000000E+00   0.00000000000000E+00   5.35006330963867E-23   3.75160325721470E-04
      3.75160325721470E-04  -4.17959993507286E-15
      4.17176919335680E-02
      8.95705770166080E-01   8.95705770166080E-01   0.00000000000000E+00   0.00000000000000E+00   2.05671808282798E-37
     -2.05671808282798E-37   0.00000000000000E+00   6.92035925182626E-16   0.00000000000000E+00   0.00000000000000E+00
      0.00000000000000E+00   0.00000000000000E+00   1.49828383457086E-12   1.56410963260925E-18   1.49828539868050E-12
      9.83678805784518E-15  -1.00000000000000E+00  -1.00000000000000E+00   0.00000000000000E+00   0.00000000000000E+00
     -8.73343210624975E-22  -3.77407104312377E-04  -3.77407104312377E-04  -6.35373651381441E-15   0.00000000000000E+00
      0.00000000000000E+00   0.00000000000000E+00   0.00000000000000E+00   5.39777003073258E-23   3.77407102814093E-04
      3.77407102814093E-04  -4.17508746921339E-15
      5.46745586829671E-02
      8.63313603292582E-01   8.63313603292582E-01   0.00000000000000E+00   0.00000000000000E+00   2.03816055365345E-37
     -2.03816055365345E-37   0.00000000000000E+00   6.75652837555580E-16   0.00000000000000E+00   0.00000000000000E+00
      0.00000000000000E+00   0.00000000000000E+00   1.49855465615901E-12   2.52226482964523E-18   1.49855717842384E-12
      9.83742506076647E-15  -1.00000000000000E+00  -1.00000000000000E+00   0.00000000000000E+00   0.00000000000000E+00
     -8.73780603583652E-22  -3.80274252862994E-04  -3.80274252862994E-04  -6.34376576160920E-15   0.00000000000000E+00
      0.00000000000000E+00   0.00000000000000E+00   0.00000000000000E+00   5.44780006585124E-23   3.80274251364438E-04
      3.80274251364438E-04  -4.16931213671286E-15
      7.12593481221978E-02
      8.21851629694505E-01   8.21851629694505E-01   0.00000000000000E+00   0.00000000000000E+00   2.18586998253184E-37
     -2.18586998253184E-37   0.00000000000000E+00   6.54687749621349E-16   0.00000000000000E+00   0.00000000000000E+00
      0.00000000000000E+00   0.00000000000000E+00   1.49890233338332E-12   1.44685909374233E-17   1.49891680197426E-12
      9.83824234128695E-15  -1.00000000000000E+00  -1.00000000000000E+00   0.00000000000000E+00   0.00000000000000E+00
     -8.74333030361771E-22  -3.83952307142275E-04  -3.83952307142275E-04  -6.33099585806887E-15   0.00000000000000E+00
      0.00000000000000E+00   0.00000000000000E+00   0.00000000000000E+00   5.51330227102651E-23   3.83952305643360E-04
      3.83952305643360E-04  -4.16193423283943E-15
      9.24878786044132E-02
      7.68780303488967E-01   7.68780303488967E-01   0.00000000000000E+00   0.00000000000000E+00   2.54459150535814E-37
     -2.54459150535814E-37   0.00000000000000E+00   6.27858444070361E-16   0.00000000000000E+00   0.00000000000000E+00
      0.00000000000000E+00   0.00000000000000E+00   1.49934602969098E-12   1.50226892531538E-16   1.49949625658351E-12
      9.83928244131240E-15  -1.00000000000000E+00  -1.00000000000000E+00   0.00000000000000E+00   0.00000000000000E+00
     -8.74979934282248E-22  -3.88657995650667E-04  -3.88657995650667E-04  -6.31463897775283E-15   0.00000000000000E+00
      0.00000000000000E+00   0.00000000000000E+00   0.00000000000000E+00   5.76863512944760E-23   3.88657994151172E-04
      3.88657994151172E-04  -4.15250190762992E-15
      1.00000000000000E-01
      7.50000000000000E-01   7.50000000000000E-01   0.00000000000000E+00   0.00000000000000E+00   2.06125862356698E-37
     -2.06125862356698E-37   0.00000000000000E+00   6.18366708565946E-16   0.00000000000000E+00   0.00000000000000E+00
      0.00000000000000E+00   0.00000000000000E+00   1.49950322750495E-12   5.68921100461149E-19   1.49950379642605E-12
      9.83964992531574E-15  -1.00000000000000E+00  -1.00000000000000E+00   0.00000000000000E+00   0.00000000000000E+00
     -8.75317320568943E-22  -3.90325471543495E-04  -3.90325471543495E-04  -6.30884662469806E-15   0.00000000000000E+00
      0.00000000000000E+00   0.00000000000000E+00   0.00000000000000E+00   5.53865418094318E-23   3.90325470043992E-04
      3.90325470043992E-04  -4.14917000918363E-15
      1.27172519017236E-01
      6.82068702456911E-01   6.82068702456911E-01   0.00000000000000E+00   0.00000000000000E+00   2.89498591446166E-37
     -2.89498591446166E-37   0.00000000000000E+00   5.84043946659332E-16   0.00000000000000E+00   0.00000000000000E+00
      0.00000000000000E+00   0.00000000000000E+00   1.50006844552778E-12   4.19615439745678E-16   1.50048806096752E-12
      9.84097942753180E-15  -1.00000000000000E+00  -1.00000000000000E+00   0.00000000000000E+00   0.00000000000000E+00
     -8.75706846809447E-22  -3.96335632912743E-04  -3.96335632912743E-04  -6.28790697527428E-15   0.00000000000000E+00
      0.00000000000000E+00   0.00000000000000E+00   0.00000000000000E+00   5.93382867271969E-23   3.96335631412255E-04
      3.96335631412255E-04  -4.13711639891684E-15
      1.61953343359297E-01
      5.95116641601756E-01   5.95116641601756E-01   0.00000000000000E+00   0.00000000000000E+00   2.37538782814723E-36
     -2.37538782814723E-36   0.00000000000000E+00   5.40137677318560E-16   0.00000000000000E+00   0.00000000000000E+00
      0.00000000000000E+00   0.00000000000000E+00   1.50078809976971E-12   5.98414898267108E-15   1.50677224875238E-12
      9.84267922914420E-15  -1.00000000000000E+00  -1.00000000000000E+00   0.00000000000000E+00   0.00000000000000E+00
     -8.55595271975044E-22  -4.04022128428149E-04  -4.04022128428149E-04  -6.26109752059527E-15   0.00000000000000E+00
      0.00000000000000E+00   0.00000000000000E+00   0.00000000000000E+00   1.12037428608764E-22   4.04022126921377E-04
      4.04022126921377E-04  -4.12171938586749E-15
      2.00000000000000E-01
      5.00000000000000E-01   5.00000000000000E-01   0.00000000000000E+00   0.00000000000000E+00   4.90097942255170E-36
     -4.90097942255170E-36   0.00000000000000E+00   4.92146005300065E-16   0.00000000000000E+00   0.00000000000000E+00
      0.00000000000000E+00   0.00000000000000E+00   1.50156923217223E-12   1.56992907444881E-14   1.51726852291672E-12
      9.84453602241286E-15  -1.00000000000000E+00  -1.00000000000000E+00   0.00000000000000E+00   0.00000000000000E+00
     -7.85187885960198E-22  -4.12426811754412E-04  -4.12426811754412E-04  -6.23175891044732E-15   0.00000000000000E+00
      0.00000000000000E+00   0.00000000000000E+00   0.00000000000000E+00   1.38514096646517E-22   4.12426810237144E-04
      4.12426810237144E-04  -4.10492311726559E-15
      2.44519455157839E-01
      3.88701362105403E-01   3.88701362105403E-01   0.00000000000000E+00   0.00000000000000E+00   2.05025898783051E-37
     -2.05025898783051E-37   0.00000000000000E+00   4.36046502429164E-16   0.00000000000000E+00   0.00000000000000E+00
      0.00000000000000E+00   0.00000000000000E+00   1.50247445118885E-12   3.71008651742113E-19   1.50247482219751E-12
      9.84669256814791E-15  -1.00000000000000E+00  -1.00000000000000E+00   0.00000000000000E+00   0.00000000000000E+00
     -8.80194674573325E-22  -4.22232775331825E-04  -4.22232775331825E-04  -6.19742128114142E-15   0.00000000000000E+00
      0.00000000000000E+00   0.00000000000000E+00   0.00000000000000E+00   6.02748603730448E-23   4.22232773829351E-04
      4.22232773829351E-04  -4.08531778943568E-15
      3.00000000000000E-01
      2.50000000000000E-01   2.50000000000000E-01   0.00000000000000E+00   0.00000000000000E+00   1.98196318014776E-37
     -1.98196318014776E-37   0.00000000000000E+00   3.66242249839208E-16   0.00000000000000E+00   0.00000000000000E+00
      0.00000000000000E+00   0.00000000000000E+00   1.50359561800962E-12  -1.87201521357688E-19   1.50359543080810E-12
      9.84936436992841E-15  -1.00000000000000E+00  -1.00000000000000E+00   0.00000000000000E+00   0.00000000000000E+00
     -8.82052256815183E-22  -4.34402611174717E-04  -4.34402611174717E-04  -6.15464996217461E-15   0.00000000000000E+00
      0.00000000000000E+00   0.00000000000000E+00   0.00000000000000E+00   6.21962846365572E-23   4.34402609671122E-04
      4.34402609671122E-04  -4.06095665759300E-15
      3.56094513498877E-01
      1.09763716252807E-01   1.09763716252807E-01   0.00000000000000E+00   0.00000000000000E+00   2.07746697252860E-37
     -2.07746697252860E-37   0.00000000000000E+00   2.95805857456132E-16   0.00000000000000E+00   0.00000000000000E+00
      0.00000000000000E+00   0.00000000000000E+00   1.50472957086982E-12  -6.77544716492940E-19   1.50472889332510E-12
      9.85204717268366E-15  -1.00000000000000E+00  -1.00000000000000E+00   0.00000000000000E+00   0.00000000000000E+00
     -8.83928430530377E-22  -4.46665274247292E-04  -4.46665274247292E-04  -6.11143420943866E-15   0.00000000000000E+00
      0.00000000000000E+00   0.00000000000000E+00   0.00000000000000E+00   6.37231278742754E-23   4.46665272742564E-04
      4.46665272742564E-04  -4.03641882070112E-15
      4.00000000000000E-01
      0.00000000000000E+00   0.00000000000000E+00   0.00000000000000E+00   0.00000000000000E+00   1.99666035394310E-37
     -1.99666035394310E-37   0.00000000000000E+00   2.40789923686490E-16   0.00000000000000E+00   0.00000000000000E+00
      0.00000000000000E+00   0.00000000000000E+00   1.50562475898486E-12  -7.03808895629925E-19   1.50562405517596E-12
      9.85413215336107E-15  -1.00000000000000E+00  -1.00000000000000E+00   0.00000000000000E+00   0.00000000000000E+00
     -8.85385486430267E-22  -4.56196953280508E-04  -4.56196953280508E-04  -6.07766146222644E-15   0.00000000000000E+00
      0.00000000000000E+00   0.00000000000000E+00   0.00000000000000E+00   6.53930501960155E-23   4.56196951774885E-04
      4.56196951774885E-04  -4.01726061482113E-15
      4.70679087008585E-01
     -1.76697717521463E-01  -1.76697717521463E-01   0.00000000000000E+00   0.00000000000000E+00   2.06603413855519E-37
     -2.06603413855519E-37   0.00000000000000E+00   1.52461515543954E-16   0.00000000000000E+00   0.00000000000000E+00
      0.00000000000000E+00   0.00000000000000E+00   1.50709020352924E-12   1.58009366553547E-19   1.50709036153861E-12
      9.85744821426037E-15  -1.00000000000000E+00  -1.00000000000000E+00   0.00000000000000E+00   0.00000000000000E+00
     -8.87681338388065E-22  -4.71389764216395E-04  -4.71389764216395E-04  -6.02341673647848E-15   0.00000000000000E+00
      0.00000000000000E+00   0.00000000000000E+00   0.00000000000000E+00   6.71238094167637E-23   4.71389762709305E-04
      4.71389762709305E-04  -3.98649299332585E-15
      5.00000000000000E-01
     -2.50000000000000E-01  -2.50000000000000E-01   0.00000000000000E+00   0.00000000000000E+00  -9.15770042442198E-35
      9.15770042442198E-35   0.00000000000000E+00   1.15916582913579E-16   0.00000000000000E+00   0.00000000000000E+00
      0.00000000000000E+00   0.00000000000000E+00   1.50771387478996E-12   8.99017368895338E-15   1.51670404847891E-12
      9.85881583865686E-15  -1.00000000000000E+00  -1.00000000000000E+00   0.00000000000000E+00   0.00000000000000E+00
     -8.83714725750199E-22  -4.77651169510853E-04  -4.77651169510853E-04  -6.00096520709477E-15   0.00000000000000E+00
      0.00000000000000E+00   0.00000000000000E+00   0.00000000000000E+00   6.88234905604114E-23   4.77651167994150E-04
      4.77651167994150E-04  -3.97376721447570E-15
      5.89055649630817E-01
     -4.72639124077043E-01  -4.72639124077043E-01   0.00000000000000E+00   0.00000000000000E+00   5.07913044262398E-37
     -5.07913044262398E-37   0.00000000000000E+00   5.29815428012494E-18   0.00000000000000E+00   0.00000000000000E+00
      0.00000000000000E+00   0.00000000000000E+00   1.50966556948904E-12  -2.23781851484337E-19   1.50966534570719E-12
      9.86291868894785E-15  -1.00000000000000E+00  -1.00000000000000E+00   0.00000000000000E+00   0.00000000000000E+00
     -8.91647071925292E-22  -4.96421427942592E-04  -4.96421427942592E-04  -5.93302354334208E-15   0.00000000000000E+00
      0.00000000000000E+00   0.00000000000000E+00   0.00000000000000E+00   7.09635072001781E-23   4.96421426432928E-04
      4.96421426432928E-04  -3.93519329988589E-15
      6.00000000000000E-01
     -5.00000000000000E-01  -5.00000000000000E-01   0.00000000000000E+00   0.00000000000000E+00  -8.00474435363235E-36
      8.00474435363235E-36   0.00000000000000E+00  -8.25412928644133E-18   0.00000000000000E+00   0.00000000000000E+00
      0.00000000000000E+00   0.00000000000000E+00   1.50991207491220E-12   1.30239184574581E-16   1.51004231409678E-12
      9.86341799593102E-15  -1.00000000000000E+00  -1.00000000000000E+00   0.00000000000000E+00   0.00000000000000E+00
     -8.91916714073775E-22  -4.98703094343436E-04  -4.98703094343436E-04  -5.92470218615673E-15   0.00000000000000E+00
      0.00000000000000E+00   0.00000000000000E+00   0.00000000000000E+00   7.14427572041852E-23   4.98703092833394E-04
      4.98703092833394E-04  -3.93046168048786E-15
      7.00000000000000E-01
     -7.50000000000000E-01  -7.50000000000000E-01   0.00000000000000E+00   0.00000000000000E+00   1.00012358743619E-33
     -1.00012358743619E-33   0.00000000000000E+00  -1.31628571692296E-16   0.00000000000000E+00   0.00000000000000E+00
      0.00000000000000E+00   0.00000000000000E+00   1.51222848214321E-12  -4.18933703738165E-17   1.51218658877284E-12
      9.86793255851167E-15  -1.00000000000000E+00  -1.00000000000000E+00   0.00000000000000E+00   0.00000000000000E+00
     -8.96216012798367E-22  -5.19245348481370E-04  -5.19245348481370E-04  -5.84901311236209E-15   0.00000000000000E+00
      0.00000000000000E+00   0.00000000000000E+00   0.00000000000000E+00   7.42992651599671E-23   5.19245346969184E-04
      5.19245346969184E-04  -3.88729087445728E-15
      8.00000000000000E-01
     -1.00000000000000E+00  -1.00000000000000E+00   0.00000000000000E+00   0.00000000000000E+00   2.50939780542620E-33
     -2.50939780542620E-33   0.00000000000000E+00  -2.54144353444061E-16   0.00000000000000E+00   0.00000000000000E+00
      0.00000000000000E+00   0.00000000000000E+00   1.51462231741918E-12  -1.15387967383180E-16   1.51450692945179E-12
      9.87235853951348E-15  -1.00000000000000E+00  -1.00000000000000E+00   0.00000000000000E+00   0.00000000000000E+00
     -8.98068240497671E-22  -5.39118067839724E-04  -5.39118067839724E-04  -5.77405341501803E-15   0.00000000000000E+00
      0.00000000000000E+00   0.00000000000000E+00   0.00000000000000E+00   7.66596452155646E-23   5.39118066325218E-04
      5.39118066325218E-04  -3.84416077105139E-15
      9.00000000000000E-01
     -1.25000000000000E+00  -1.25000000000000E+00   0.00000000000000E+00   0.00000000000000E+00   8.87897102096387E-33
     -8.87897102096387E-33   0.00000000000000E+00  -3.75758472186913E-16   0.00000000000000E+00   0.00000000000000E+00
      0.00000000000000E+00   0.00000000000000E+00   1.51699966045818E-12  -3.82988993699020E-15   1.51316977052119E-12
      9.87669650280938E-15  -1.00000000000000E+00  -1.00000000000000E+00   0.00000000000000E+00   0.00000000000000E+00
     -9.01210029210332E-22  -5.58172627900374E-04  -5.58172627900374E-04  -5.69996444140838E-15   0.00000000000000E+00
      0.00000000000000E+00   0.00000000000000E+00   0.00000000000000E+00   7.96546315611937E-23   5.58172626387205E-04
      5.58172626387205E-04  -3.80097358921410E-15
      1.00000000000000E+00
     -1.50000000000000E+00  -1.50000000000000E+00   0.00000000000000E+00   0.00000000000000E+00   7.61508319091060E-32
     -7.61508319091060E-32   0.00000000000000E+00  -4.96430009395345E-16   0.00000000000000E+00   0.00000000000000E+00
      0.00000000000000E+00   0.00000000000000E+00   1.51927432355479E-12  -6.96713633253169E-15   1.51230718722226E-12
      9.88094215739139E-15  -1.00000000000000E+00  -1.00000000000000E+00   0.00000000000000E+00   0.00000000000000E+00
     -9.04362083112237E-22  -5.76321918946828E-04  -5.76321918946828E-04  -5.62684910067968E-15   0.00000000000000E+00
      0.00000000000000E+00   0.00000000000000E+00   0.00000000000000E+00   8.23369869312251E-23   5.76321917434522E-04
      5.76321917434522E-04  -3.75766304731637E-15
}
