DF-ISE text

Info {
  version   = 1.0
  type      = xyplot
  datasets  = [
    "time"
    "gate OuterVoltage" "gate InnerVoltage" "gate QuasiFermiPotential" "gate DisplacementCurrent" "gate eCurrent"
    "gate hCurrent" "gate TotalCurrent" "gate Charge" "substrate OuterVoltage" "substrate InnerVoltage"
    "substrate QuasiFermiPotential" "substrate DisplacementCurrent" "substrate eCurrent" "substrate hCurrent" "substrate TotalCurrent"
    "substrate Charge" "drain OuterVoltage" "drain InnerVoltage" "drain QuasiFermiPotential" "drain DisplacementCurrent"
    "drain eCurrent" "drain hCurrent" "drain TotalCurrent" "drain Charge" "source OuterVoltage"
    "source InnerVoltage" "source QuasiFermiPotential" "source DisplacementCurrent" "source eCurrent" "source hCurrent"
    "source TotalCurrent" "source Charge" ]
  functions = [
    Time
    OuterVoltage InnerVoltage QuasiFermiPotential DisplacementCurrent eCurrent
    hCurrent TotalCurrent Charge OuterVoltage InnerVoltage
    QuasiFermiPotential DisplacementCurrent eCurrent hCurrent TotalCurrent
    Charge OuterVoltage InnerVoltage QuasiFermiPotential DisplacementCurrent
    eCurrent hCurrent TotalCurrent Charge OuterVoltage
    InnerVoltage QuasiFermiPotential DisplacementCurrent eCurrent hCurrent
    TotalCurrent Charge ]
}

Data {
      0.00000000000000E+00
     -1.00000000000000E+00  -1.00000000000000E+00   0.00000000000000E+00   0.00000000000000E+00   1.59817285772361E-36
     -1.59817285772361E-36   0.00000000000000E+00  -8.15523054432373E-16   0.00000000000000E+00   0.00000000000000E+00
      0.00000000000000E+00   0.00000000000000E+00   2.31296178676920E-20  -2.44126633342784E-14  -2.44126402046606E-14
     -9.84661360520651E-15   1.00000000000000E+00   1.00000000000000E+00   0.00000000000000E+00   0.00000000000000E+00
      2.19793069293176E-09   8.29570810393357E-21   2.19793069294005E-09   6.62383448287372E-15   0.00000000000000E+00
      0.00000000000000E+00   0.00000000000000E+00   0.00000000000000E+00  -2.19790628029988E-09  -2.90852975667733E-25
     -2.19790628029988E-09   4.03830217676518E-15
      1.00000000000000E-03
     -9.97500000000000E-01  -9.97500000000000E-01   0.00000000000000E+00   0.00000000000000E+00   1.56543689283699E-36
     -1.56543689283699E-36   0.00000000000000E+00  -8.14103155757886E-16   0.00000000000000E+00   0.00000000000000E+00
      0.00000000000000E+00   0.00000000000000E+00   9.86777981721850E-21  -2.44120780370866E-14  -2.44120681693068E-14
     -9.84665263334364E-15   1.00000000000000E+00   1.00000000000000E+00   0.00000000000000E+00   0.00000000000000E+00
      2.24193375376094E-09   8.29570828545817E-21   2.24193375376923E-09   6.62316769104358E-15   0.00000000000000E+00
      0.00000000000000E+00   0.00000000000000E+00   0.00000000000000E+00  -2.24190934170109E-09   1.47712240252457E-25
     -2.24190934170109E-09   4.03758809805797E-15
      2.28000000000000E-03
     -9.94300000000000E-01  -9.94300000000000E-01   0.00000000000000E+00   0.00000000000000E+00   3.43986550757525E-36
     -3.43986550757525E-36   0.00000000000000E+00  -8.12285652930922E-16   0.00000000000000E+00   0.00000000000000E+00
      0.00000000000000E+00   0.00000000000000E+00  -1.60860597942460E-15  -2.44113353817569E-14  -2.60199413611815E-14
     -9.84670257118712E-15   1.00000000000000E+00   1.00000000000000E+00   0.00000000000000E+00   0.00000000000000E+00
      2.29952839008604E-09   8.29569692051663E-21   2.29952839009434E-09   6.62231416464247E-15   0.00000000000000E+00
      0.00000000000000E+00   0.00000000000000E+00   0.00000000000000E+00  -2.29950237015296E-09  -4.32367422630724E-23
     -2.29950237015300E-09   4.03667405947559E-15
      3.94400000000000E-03
     -9.90140000000000E-01  -9.90140000000000E-01   0.00000000000000E+00   0.00000000000000E+00   6.82208679178544E-36
     -6.82208679178544E-36   0.00000000000000E+00  -8.09922844866391E-16   0.00000000000000E+00   0.00000000000000E+00
      0.00000000000000E+00   0.00000000000000E+00  -4.59383748269402E-15  -2.44103808478798E-14  -2.90042183305738E-14
     -9.84676746016903E-15   1.00000000000000E+00   1.00000000000000E+00   0.00000000000000E+00   0.00000000000000E+00
      2.37658923854928E-09   8.29567653243197E-21   2.37658923855758E-09   6.62120452534946E-15   0.00000000000000E+00
      0.00000000000000E+00   0.00000000000000E+00   0.00000000000000E+00  -2.37656023433916E-09  -1.20333946558713E-22
     -2.37656023433928E-09   4.03548577968597E-15
      6.10720000000000E-03
     -9.84732000000000E-01  -9.84732000000000E-01   0.00000000000000E+00   0.00000000000000E+00   1.66857905130856E-35
     -1.66857905130856E-35   0.00000000000000E+00  -8.06851102912465E-16   0.00000000000000E+00   0.00000000000000E+00
      0.00000000000000E+00   0.00000000000000E+00  -1.33510113559647E-14  -2.44091581129794E-14  -3.77601694689441E-14
     -9.84685176542051E-15   1.00000000000000E+00   1.00000000000000E+00   0.00000000000000E+00   0.00000000000000E+00
      2.48058920024280E-09   8.29561851359042E-21   2.48058920025110E-09   6.61976190176859E-15   0.00000000000000E+00
      0.00000000000000E+00   0.00000000000000E+00   0.00000000000000E+00  -2.48055144008131E-09  -3.41853381391022E-22
     -2.48055144008165E-09   4.03394096656439E-15
      8.91936000000000E-03
     -9.77701600000000E-01  -9.77701600000000E-01   0.00000000000000E+00   0.00000000000000E+00   4.51818286784165E-35
     -4.51818286784165E-35   0.00000000000000E+00  -8.02857684773769E-16   0.00000000000000E+00   0.00000000000000E+00
      0.00000000000000E+00   0.00000000000000E+00  -3.90016892883278E-14  -2.44075986238947E-14  -6.34092879122225E-14
     -9.84696127844553E-15   1.00000000000000E+00   1.00000000000000E+00   0.00000000000000E+00   0.00000000000000E+00
      2.62252798213540E-09   8.29545642940226E-21   2.62252798214369E-09   6.61788633566459E-15   0.00000000000000E+00
      0.00000000000000E+00   0.00000000000000E+00   0.00000000000000E+00  -2.62246457285484E-09  -9.70380417065814E-22
     -2.62246457285581E-09   4.03193262755474E-15
      1.25751680000000E-02
     -9.68562080000000E-01  -9.68562080000000E-01   0.00000000000000E+00   0.00000000000000E+00   1.56435019975959E-36
     -1.56435019975959E-36   0.00000000000000E+00  -7.97665983779501E-16   0.00000000000000E+00   0.00000000000000E+00
      0.00000000000000E+00   0.00000000000000E+00  -7.74439880869900E-21  -2.44056233096914E-14  -2.44056310540902E-14
     -9.84710350690689E-15   1.00000000000000E+00   1.00000000000000E+00   0.00000000000000E+00   0.00000000000000E+00
      2.81908667577845E-09   8.29571039875178E-21   2.81908667578675E-09   6.61544783892125E-15   0.00000000000000E+00
      0.00000000000000E+00   0.00000000000000E+00   0.00000000000000E+00  -2.81906227015571E-09  -8.05925585330562E-26
     -2.81906227015571E-09   4.02932165176514E-15
      1.72546022400000E-02
     -9.56863494400000E-01  -9.56863494400000E-01   0.00000000000000E+00   0.00000000000000E+00   1.61207708448054E-36
     -1.61207708448054E-36   0.00000000000000E+00  -7.91020186526353E-16   0.00000000000000E+00   0.00000000000000E+00
      0.00000000000000E+00   0.00000000000000E+00  -2.70407468602515E-20  -2.44031738926864E-14  -2.44032009334333E-14
     -9.84728533778002E-15   1.00000000000000E+00   1.00000000000000E+00   0.00000000000000E+00   0.00000000000000E+00
      3.09201334261627E-09   8.29571125966812E-21   3.09201334262457E-09   6.61232613688302E-15   0.00000000000000E+00
      0.00000000000000E+00   0.00000000000000E+00   0.00000000000000E+00  -3.09198893942366E-09  -1.25352753408212E-26
     -3.09198893942366E-09   4.02597938742336E-15
      2.32442780672000E-02
     -9.41889304832000E-01  -9.41889304832000E-01   0.00000000000000E+00   0.00000000000000E+00   1.51036880591099E-36
     -1.51036880591099E-36   0.00000000000000E+00  -7.82512887716629E-16   0.00000000000000E+00   0.00000000000000E+00
      0.00000000000000E+00   0.00000000000000E+00  -2.02882409535920E-20  -2.44001642417537E-14  -2.44001845299946E-14
     -9.84751773307485E-15   1.00000000000000E+00   1.00000000000000E+00   0.00000000000000E+00   0.00000000000000E+00
      3.47967422411531E-09   8.29571236851825E-21   3.47967422412361E-09   6.60832966822793E-15   0.00000000000000E+00
      0.00000000000000E+00   0.00000000000000E+00   0.00000000000000E+00  -3.47964982393911E-09   2.43787098834418E-25
     -3.47964982393911E-09   4.02170095256353E-15
      3.09110631260160E-02
     -9.22722342184960E-01  -9.22722342184960E-01   0.00000000000000E+00   0.00000000000000E+00   1.55756442988818E-36
     -1.55756442988818E-36   0.00000000000000E+00  -7.71622454427589E-16   0.00000000000000E+00   0.00000000000000E+00
      0.00000000000000E+00   0.00000000000000E+00  -1.40915141515865E-19  -2.43965051731762E-14  -2.43966460883177E-14
     -9.84781466053320E-15   1.00000000000000E+00   1.00000000000000E+00   0.00000000000000E+00   0.00000000000000E+00
      4.04648864119836E-09   8.29571379789361E-21   4.04648864120665E-09   6.60321307463025E-15   0.00000000000000E+00
      0.00000000000000E+00   0.00000000000000E+00   0.00000000000000E+00  -4.04646424456057E-09  -2.13853397971668E-25
     -4.04646424456057E-09   4.01622404033056E-15
      4.07245480013005E-02
     -8.98188629996749E-01  -8.98188629996749E-01   0.00000000000000E+00   0.00000000000000E+00   1.59774057129913E-36
     -1.59774057129913E-36   0.00000000000000E+00  -7.57680955906260E-16   0.00000000000000E+00   0.00000000000000E+00
      0.00000000000000E+00   0.00000000000000E+00  -1.21372767337650E-18  -2.43921131161939E-14  -2.43933268438673E-14
     -9.84819391539281E-15   1.00000000000000E+00   1.00000000000000E+00   0.00000000000000E+00   0.00000000000000E+00
      4.90646751915178E-09   8.29571564701295E-21   4.90646751916007E-09   6.59666204413059E-15   0.00000000000000E+00
      0.00000000000000E+00   0.00000000000000E+00   0.00000000000000E+00  -4.90644312583324E-09  -1.11809022754000E-26
     -4.90644312583324E-09   4.00921282716850E-15
      5.32858086416646E-02
     -8.66785478395838E-01  -8.66785478395838E-01   0.00000000000000E+00   0.00000000000000E+00   1.57784800079235E-36
     -1.57784800079235E-36   0.00000000000000E+00  -7.39833071755511E-16   0.00000000000000E+00   0.00000000000000E+00
      0.00000000000000E+00   0.00000000000000E+00  -9.81516552650419E-18  -2.43869235880779E-14  -2.43967387536044E-14
     -9.84867818598320E-15   1.00000000000000E+00   1.00000000000000E+00   0.00000000000000E+00   0.00000000000000E+00
      6.27420054672343E-09   8.29571803831525E-21   6.27420054673173E-09   6.58827385868595E-15   0.00000000000000E+00
      0.00000000000000E+00   0.00000000000000E+00   0.00000000000000E+00  -6.27417614999300E-09  -2.91237272242517E-27
     -6.27417614999300E-09   4.00023739905277E-15
      6.93642222613307E-02
     -8.26589444346673E-01  -8.26589444346673E-01   0.00000000000000E+00   0.00000000000000E+00   1.60102709169757E-36
     -1.60102709169757E-36   0.00000000000000E+00  -7.16983440401316E-16   0.00000000000000E+00   0.00000000000000E+00
      0.00000000000000E+00   0.00000000000000E+00  -8.28690768950417E-17  -2.43809202004996E-14  -2.44637892773946E-14
     -9.84929647669123E-15   1.00000000000000E+00   1.00000000000000E+00   0.00000000000000E+00   0.00000000000000E+00
      8.58394501710768E-09   8.29572101067683E-21   8.58394501711598E-09   6.57753241466722E-15   0.00000000000000E+00
      0.00000000000000E+00   0.00000000000000E+00   0.00000000000000E+00  -8.58392055332681E-09  -4.14738276831806E-26
     -8.58392055332681E-09   3.98874750242534E-15
      8.99445916945033E-02
     -7.75138520763742E-01  -7.75138520763742E-01   0.00000000000000E+00   0.00000000000000E+00   1.45236485806292E-36
     -1.45236485806292E-36   0.00000000000000E+00  -6.87729207351723E-16   0.00000000000000E+00   0.00000000000000E+00
      0.00000000000000E+00   0.00000000000000E+00  -7.26944935501945E-16  -2.43741978756648E-14  -2.51011428111667E-14
     -9.85008611872454E-15   1.00000000000000E+00   1.00000000000000E+00   0.00000000000000E+00   0.00000000000000E+00
      1.27931605817409E-08   8.29572310939254E-21   1.27931605817491E-08   6.56377611818719E-15   0.00000000000000E+00
      0.00000000000000E+00   0.00000000000000E+00   0.00000000000000E+00  -1.27931354806064E-08   1.81431043766082E-26
     -1.27931354806064E-08   3.97403920788908E-15
      1.00000000000000E-01
     -7.50000000000000E-01  -7.50000000000000E-01   0.00000000000000E+00   0.00000000000000E+00   1.58031126104856E-36
     -1.58031126104856E-36   0.00000000000000E+00  -6.73433236213340E-16   0.00000000000000E+00   0.00000000000000E+00
      0.00000000000000E+00   0.00000000000000E+00  -2.22170951887862E-17  -2.43712836816829E-14  -2.43935007768717E-14
     -9.85047155744936E-15   1.00000000000000E+00   1.00000000000000E+00   0.00000000000000E+00   0.00000000000000E+00
      1.55325510280141E-08   8.29572766247683E-21   1.55325510280224E-08   6.55705201164587E-15   0.00000000000000E+00
      0.00000000000000E+00   0.00000000000000E+00   0.00000000000000E+00  -1.55325266345217E-08  -3.62527910418345E-25
     -1.55325266345217E-08   3.96685278201682E-15
      1.26342872874461E-01
     -6.84142817813848E-01  -6.84142817813848E-01   0.00000000000000E+00   0.00000000000000E+00   1.20933004135044E-36
     -1.20933004135044E-36   0.00000000000000E+00  -6.35973621139380E-16   0.00000000000000E+00   0.00000000000000E+00
      0.00000000000000E+00   0.00000000000000E+00  -2.61402676448784E-15  -2.43646932212793E-14  -2.69787199857671E-14
     -9.85148166641289E-15   1.00000000000000E+00   1.00000000000000E+00   0.00000000000000E+00   0.00000000000000E+00
      2.57441591042281E-08   8.29571808540532E-21   2.57441591042364E-08   6.53942756767799E-15   0.00000000000000E+00
      0.00000000000000E+00   0.00000000000000E+00   0.00000000000000E+00  -2.57441321255166E-08   1.34629433284318E-26
     -2.57441321255166E-08   3.94802771987430E-15
      1.60061750153771E-01
     -5.99845624615573E-01  -5.99845624615573E-01   0.00000000000000E+00   0.00000000000000E+00   1.54052155880832E-36
     -1.54052155880832E-36   0.00000000000000E+00  -5.88011141986488E-16   0.00000000000000E+00   0.00000000000000E+00
      0.00000000000000E+00   0.00000000000000E+00  -1.12037777860198E-19  -2.43580330512921E-14  -2.43581450890699E-14
     -9.85278003086377E-15   1.00000000000000E+00   1.00000000000000E+00   0.00000000000000E+00   0.00000000000000E+00
      4.88175970957168E-08   8.29574387175596E-21   4.88175970957251E-08   6.51684958558892E-15   0.00000000000000E+00
      0.00000000000000E+00   0.00000000000000E+00   0.00000000000000E+00  -4.88175727375802E-08  -3.55549785227569E-25
     -4.88175727375802E-08   3.92394158726135E-15
      2.00000000000000E-01
     -5.00000000000000E-01  -5.00000000000000E-01   0.00000000000000E+00   0.00000000000000E+00   1.57954356450653E-36
     -1.57954356450653E-36   0.00000000000000E+00  -5.31184578229726E-16   0.00000000000000E+00   0.00000000000000E+00
      0.00000000000000E+00   0.00000000000000E+00  -9.68948921039666E-20  -2.43519029776302E-14  -2.43519998725223E-14
     -9.85433799203188E-15   1.00000000000000E+00   1.00000000000000E+00   0.00000000000000E+00   0.00000000000000E+00
      1.03013728294132E-07   8.29575999021626E-21   1.03013728294141E-07   6.49007793951514E-15   0.00000000000000E+00
      0.00000000000000E+00   0.00000000000000E+00   0.00000000000000E+00  -1.03013703942141E-07  -2.75033180344085E-25
     -1.03013703942141E-07   3.89544463074648E-15
      2.42485785371931E-01
     -3.93785536570173E-01  -3.93785536570173E-01   0.00000000000000E+00   0.00000000000000E+00   1.56950022018815E-36
     -1.56950022018815E-36   0.00000000000000E+00  -4.70716231597427E-16   0.00000000000000E+00   0.00000000000000E+00
      0.00000000000000E+00   0.00000000000000E+00   1.54628670393089E-18  -2.43475984934727E-14  -2.43460522067688E-14
     -9.85604246492353E-15   1.00000000000000E+00   1.00000000000000E+00   0.00000000000000E+00   0.00000000000000E+00
      2.24483548986668E-07   8.29578785188230E-21   2.24483548986677E-07   6.46155527345141E-15   0.00000000000000E+00
      0.00000000000000E+00   0.00000000000000E+00   0.00000000000000E+00  -2.24483524640626E-07  -6.94314744012593E-26
     -2.24483524640626E-07   3.86520342306957E-15
      2.96017874940563E-01
     -2.59955312648592E-01  -2.59955312648592E-01   0.00000000000000E+00   0.00000000000000E+00   1.53966453908834E-36
     -1.53966453908834E-36   0.00000000000000E+00  -3.94506082595262E-16   0.00000000000000E+00   0.00000000000000E+00
      0.00000000000000E+00   0.00000000000000E+00   5.53722899775696E-16  -2.43488531243669E-14  -2.37951302245912E-14
     -9.85831863725315E-15   1.00000000000000E+00   1.00000000000000E+00   0.00000000000000E+00   0.00000000000000E+00
      5.82292763249804E-07   8.29585780387017E-21   5.82292763249812E-07   6.42551643444602E-15   0.00000000000000E+00
      0.00000000000000E+00   0.00000000000000E+00   0.00000000000000E+00  -5.82292739454683E-07   7.01674559670887E-27
     -5.82292739454683E-07   3.82730828540240E-15
      3.00000000000000E-01
     -2.50000000000000E-01  -2.50000000000000E-01   0.00000000000000E+00   0.00000000000000E+00   1.58648375907411E-36
     -1.58648375907411E-36   0.00000000000000E+00  -3.88836183709912E-16   0.00000000000000E+00   0.00000000000000E+00
      0.00000000000000E+00   0.00000000000000E+00  -4.77066228141721E-17  -2.43494200360748E-14  -2.43971266588889E-14
     -9.85849636938402E-15   1.00000000000000E+00   1.00000000000000E+00   0.00000000000000E+00   0.00000000000000E+00
      6.24134993856757E-07   8.29586558296509E-21   6.24134993856766E-07   6.42282895944944E-15   0.00000000000000E+00
      0.00000000000000E+00   0.00000000000000E+00   0.00000000000000E+00  -6.24134969459639E-07   1.43441032564671E-25
     -6.24134969459639E-07   3.82450359364449E-15
      3.67450432856477E-01
     -8.13739178588073E-02  -8.13739178588073E-02   0.00000000000000E+00   0.00000000000000E+00   1.71205286518812E-36
     -1.71205286518812E-36   0.00000000000000E+00  -2.92779450536688E-16   0.00000000000000E+00   0.00000000000000E+00
      0.00000000000000E+00   0.00000000000000E+00   5.18722306697782E-14  -2.43761947794101E-14   2.74960358903681E-14
     -9.86178719422868E-15   1.00000000000000E+00   1.00000000000000E+00   0.00000000000000E+00   0.00000000000000E+00
      1.94027670295958E-06   8.29610012042630E-21   1.94027670295959E-06   6.37706167418484E-15   0.00000000000000E+00
      0.00000000000000E+00   0.00000000000000E+00   0.00000000000000E+00  -1.94027673045563E-06   1.18588028112476E-25
     -1.94027673045563E-06   3.77750497058054E-15
      4.00000000000000E-01
      0.00000000000000E+00   0.00000000000000E+00   0.00000000000000E+00   0.00000000000000E+00   1.50438698379729E-36
     -1.50438698379729E-36   0.00000000000000E+00  -2.46410016645889E-16   0.00000000000000E+00   0.00000000000000E+00
      0.00000000000000E+00   0.00000000000000E+00   2.82725041105963E-18  -2.44069681737419E-14  -2.44041409233308E-14
     -9.86364335385640E-15   1.00000000000000E+00   1.00000000000000E+00   0.00000000000000E+00   0.00000000000000E+00
      3.23939949466309E-06   8.29632577939203E-21   3.23939949466310E-06   6.35471342092923E-15   0.00000000000000E+00
      0.00000000000000E+00   0.00000000000000E+00   0.00000000000000E+00  -3.23939947025899E-06   5.39705084776285E-26
     -3.23939947025899E-06   3.75533994957307E-15
      4.84987545399161E-01
      2.12468863497903E-01   2.12468863497903E-01   0.00000000000000E+00   0.00000000000000E+00   1.58795624072095E-36
     -1.58795624072095E-36   0.00000000000000E+00  -1.25266925947972E-16   0.00000000000000E+00   0.00000000000000E+00
      0.00000000000000E+00   0.00000000000000E+00  -3.12639162245743E-18  -2.45877412341841E-14  -2.45908676258065E-14
     -9.86983506820820E-15   1.00000000000000E+00   1.00000000000000E+00   0.00000000000000E+00   0.00000000000000E+00
      1.06260360860701E-05   8.29759095529490E-21   1.06260360860701E-05   6.29480607419009E-15   0.00000000000000E+00
      0.00000000000000E+00   0.00000000000000E+00   0.00000000000000E+00  -1.06260360614793E-05  -1.95902557800532E-25
     -1.06260360614793E-05   3.70029591996608E-15
      5.00000000000000E-01
      2.50000000000000E-01   2.50000000000000E-01   0.00000000000000E+00   0.00000000000000E+00   1.60142396859302E-36
     -1.60142396859302E-36   0.00000000000000E+00  -1.03855165842940E-16   0.00000000000000E+00   0.00000000000000E+00
      0.00000000000000E+00   0.00000000000000E+00   3.03314261575195E-18  -2.46393086703700E-14  -2.46362755277542E-14
     -9.87118428847144E-15   1.00000000000000E+00   1.00000000000000E+00   0.00000000000000E+00   0.00000000000000E+00
      1.27626771115876E-05   8.29795529502772E-21   1.27626771115876E-05   6.28390066354664E-15   0.00000000000000E+00
      0.00000000000000E+00   0.00000000000000E+00   0.00000000000000E+00  -1.27626770869515E-05  -2.95041531610916E-26
     -1.27626770869515E-05   3.69113879076776E-15
      6.00000000000000E-01
      5.00000000000000E-01   5.00000000000000E-01   0.00000000000000E+00   0.00000000000000E+00   1.53434349097221E-36
     -1.53434349097221E-36   0.00000000000000E+00   3.88435027897839E-17   0.00000000000000E+00   0.00000000000000E+00
      0.00000000000000E+00   0.00000000000000E+00   9.75482426844322E-16  -2.51375326989196E-14  -2.41620502720752E-14
     -9.88237953984406E-15   1.00000000000000E+00   1.00000000000000E+00   0.00000000000000E+00   0.00000000000000E+00
      3.49073625000241E-05   8.30172313981085E-21   3.49073625000241E-05   6.20818315636073E-15   0.00000000000000E+00
      0.00000000000000E+00   0.00000000000000E+00   0.00000000000000E+00  -3.49073624758623E-05  -5.02444026524440E-25
     -3.49073624758623E-05   3.63535288069356E-15
      7.00000000000000E-01
      7.50000000000000E-01   7.50000000000000E-01   0.00000000000000E+00   0.00000000000000E+00   2.47167154344894E-36
     -2.47167154344894E-36   0.00000000000000E+00   1.81506596171663E-16   0.00000000000000E+00   0.00000000000000E+00
      0.00000000000000E+00   0.00000000000000E+00  -1.52611658972873E-13  -2.57974128064420E-14  -1.78409071779315E-13
     -9.89693337448267E-15   1.00000000000000E+00   1.00000000000000E+00   0.00000000000000E+00   0.00000000000000E+00
      6.98333341876451E-05   8.30766099512193E-21   6.98333341876452E-05   6.12749297337489E-15   0.00000000000000E+00
      0.00000000000000E+00   0.00000000000000E+00   0.00000000000000E+00  -6.98333340092361E-05  -9.09517914113874E-25
     -6.98333340092361E-05   3.58793380493613E-15
      8.00000000000000E-01
      1.00000000000000E+00   1.00000000000000E+00   0.00000000000000E+00   0.00000000000000E+00   1.56420782599268E-36
     -1.56420782599268E-36   0.00000000000000E+00   3.23865276356663E-16   0.00000000000000E+00   0.00000000000000E+00
      0.00000000000000E+00   0.00000000000000E+00  -4.25968523267835E-18  -2.64530708186363E-14  -2.64573305038690E-14
     -9.91373157659583E-15   1.00000000000000E+00   1.00000000000000E+00   0.00000000000000E+00   0.00000000000000E+00
      1.13725727188449E-04   8.31512822431721E-21   1.13725727188449E-04   6.04332267560488E-15   0.00000000000000E+00
      0.00000000000000E+00   0.00000000000000E+00   0.00000000000000E+00  -1.13725727161992E-04  -1.22085531084126E-24
     -1.13725727161992E-04   3.54654362463430E-15
      9.00000000000000E-01
      1.25000000000000E+00   1.25000000000000E+00   0.00000000000000E+00   0.00000000000000E+00   1.62352918655508E-36
     -1.62352918655508E-36   0.00000000000000E+00   4.65691013483412E-16   0.00000000000000E+00   0.00000000000000E+00
      0.00000000000000E+00   0.00000000000000E+00   2.49162525457694E-18  -2.70175047634871E-14  -2.70150131382325E-14
     -9.93185682833297E-15   1.00000000000000E+00   1.00000000000000E+00   0.00000000000000E+00   0.00000000000000E+00
      1.62990320111641E-04   8.32351991500230E-21   1.62990320111641E-04   5.95710507558673E-15   0.00000000000000E+00
      0.00000000000000E+00   0.00000000000000E+00   0.00000000000000E+00  -1.62990320084626E-04  -1.55222728421381E-24
     -1.62990320084626E-04   3.50906073926282E-15
      1.00000000000000E+00
      1.50000000000000E+00   1.50000000000000E+00   0.00000000000000E+00   0.00000000000000E+00   1.66332290083243E-36
     -1.66332290083243E-36   0.00000000000000E+00   6.06817242880929E-16   0.00000000000000E+00   0.00000000000000E+00
      0.00000000000000E+00   0.00000000000000E+00  -3.96549373752549E-19  -2.74701352113682E-14  -2.74705317607420E-14
     -9.95072500611658E-15   1.00000000000000E+00   1.00000000000000E+00   0.00000000000000E+00   0.00000000000000E+00
      2.15168753426290E-04   8.33242156424660E-21   2.15168753426290E-04   5.86984437025500E-15   0.00000000000000E+00
      0.00000000000000E+00   0.00000000000000E+00   0.00000000000000E+00  -2.15168753398819E-04  -2.10747498359237E-24
     -2.15168753398819E-04   3.47406339298065E-15
}
