DF-ISE text

Info {
  version   = 1.0
  type      = xyplot
  datasets  = [
    "time"
    "gate OuterVoltage" "gate InnerVoltage" "gate QuasiFermiPotential" "gate DisplacementCurrent" "gate eCurrent"
    "gate hCurrent" "gate TotalCurrent" "gate Charge" "substrate OuterVoltage" "substrate InnerVoltage"
    "substrate QuasiFermiPotential" "substrate DisplacementCurrent" "substrate eCurrent" "substrate hCurrent" "substrate TotalCurrent"
    "substrate Charge" "drain OuterVoltage" "drain InnerVoltage" "drain QuasiFermiPotential" "drain DisplacementCurrent"
    "drain eCurrent" "drain hCurrent" "drain TotalCurrent" "drain Charge" "source OuterVoltage"
    "source InnerVoltage" "source QuasiFermiPotential" "source DisplacementCurrent" "source eCurrent" "source hCurrent"
    "source TotalCurrent" "source Charge" ]
  functions = [
    Time
    OuterVoltage InnerVoltage QuasiFermiPotential DisplacementCurrent eCurrent
    hCurrent TotalCurrent Charge OuterVoltage InnerVoltage
    QuasiFermiPotential DisplacementCurrent eCurrent hCurrent TotalCurrent
    Charge OuterVoltage InnerVoltage QuasiFermiPotential DisplacementCurrent
    eCurrent hCurrent TotalCurrent Charge OuterVoltage
    InnerVoltage QuasiFermiPotential DisplacementCurrent eCurrent hCurrent
    TotalCurrent Charge ]
}

Data {
      0.00000000000000E+00
     -1.00000000000000E+00  -1.00000000000000E+00   0.00000000000000E+00   0.00000000000000E+00   1.62344558077589E-36
     -1.62344558077589E-36   0.00000000000000E+00  -8.48942480357955E-16   0.00000000000000E+00   0.00000000000000E+00
      0.00000000000000E+00   0.00000000000000E+00  -2.12618611859362E-18  -1.28548426348985E-15  -1.28761044960845E-15
     -2.93419686139168E-15   1.00000000000000E+00   1.00000000000000E+00   0.00000000000000E+00   0.00000000000000E+00
      1.03787629642878E-04   9.28757564675360E-21   1.03787629642878E-04   2.40888417503524E-15   0.00000000000000E+00
      0.00000000000000E+00   0.00000000000000E+00   0.00000000000000E+00  -1.03787629641591E-04  -7.38360882969514E-25
     -1.03787629641591E-04   1.37425516671439E-15
      1.00000000000000E-03
     -9.97500000000000E-01  -9.97500000000000E-01   0.00000000000000E+00   0.00000000000000E+00   1.59897644151906E-36
     -1.59897644151906E-36   0.00000000000000E+00  -8.47511434301395E-16   0.00000000000000E+00   0.00000000000000E+00
      0.00000000000000E+00   0.00000000000000E+00  -1.48004468932117E-18  -1.28562342506328E-15  -1.28710346975260E-15
     -2.93427482129013E-15   1.00000000000000E+00   1.00000000000000E+00   0.00000000000000E+00   0.00000000000000E+00
      1.04262036186540E-04   9.28765405562776E-21   1.04262036186540E-04   2.40815899727626E-15   0.00000000000000E+00
      0.00000000000000E+00   0.00000000000000E+00   0.00000000000000E+00  -1.04262036185253E-04  -7.41601150752485E-25
     -1.04262036185253E-04   1.37362725831526E-15
      2.28000000000000E-03
     -9.94300000000000E-01  -9.94300000000000E-01   0.00000000000000E+00   0.00000000000000E+00   3.41284284321366E-36
     -3.41284284321366E-36   0.00000000000000E+00  -8.45679650257268E-16   0.00000000000000E+00   0.00000000000000E+00
      0.00000000000000E+00   0.00000000000000E+00  -8.36956775028921E-14  -1.28580099995012E-15  -8.49814785028422E-14
     -2.93437464345288E-15   1.00000000000000E+00   1.00000000000000E+00   0.00000000000000E+00   0.00000000000000E+00
      1.04868384769312E-04   9.28775417213523E-21   1.04868384769312E-04   2.40723084241384E-15   0.00000000000000E+00
      0.00000000000000E+00   0.00000000000000E+00   0.00000000000000E+00  -1.04868384684331E-04  -7.46956524829859E-25
     -1.04868384684331E-04   1.37282345129631E-15
      3.94400000000000E-03
     -9.90140000000000E-01  -9.90140000000000E-01   0.00000000000000E+00   0.00000000000000E+00   6.57922249590456E-36
     -6.57922249590456E-36   0.00000000000000E+00  -8.43298275058432E-16   0.00000000000000E+00   0.00000000000000E+00
      0.00000000000000E+00   0.00000000000000E+00  -3.96410692093668E-13  -1.28603051270324E-15  -3.97696722606372E-13
     -2.93450434960586E-15   1.00000000000000E+00   1.00000000000000E+00   0.00000000000000E+00   0.00000000000000E+00
      1.05653616658662E-04   9.28788378555777E-21   1.05653616658662E-04   2.40602452547429E-15   0.00000000000000E+00
      0.00000000000000E+00   0.00000000000000E+00   0.00000000000000E+00  -1.05653616260966E-04  -7.59973364839986E-25
     -1.05653616260966E-04   1.37177809919000E-15
      6.10720000000000E-03
     -9.84732000000000E-01  -9.84732000000000E-01   0.00000000000000E+00   0.00000000000000E+00   1.68525082255043E-35
     -1.68525082255043E-35   0.00000000000000E+00  -8.40202254966373E-16   0.00000000000000E+00   0.00000000000000E+00
      0.00000000000000E+00   0.00000000000000E+00   8.51925552047881E-13  -1.28632975234516E-15   8.50639222295536E-13
     -2.93467374640640E-15   1.00000000000000E+00   1.00000000000000E+00   0.00000000000000E+00   0.00000000000000E+00
      1.06680809990538E-04   9.28805279813434E-21   1.06680809990538E-04   2.40445556682924E-15   0.00000000000000E+00
      0.00000000000000E+00   0.00000000000000E+00   0.00000000000000E+00  -1.06680810841178E-04  -7.95264376246106E-25
     -1.06680810841178E-04   1.37042043454353E-15
      8.91936000000000E-03
     -9.77701600000000E-01  -9.77701600000000E-01   0.00000000000000E+00   0.00000000000000E+00   1.60428740608897E-36
     -1.60428740608897E-36   0.00000000000000E+00  -8.36177028124927E-16   0.00000000000000E+00   0.00000000000000E+00
      0.00000000000000E+00   0.00000000000000E+00  -7.01523611166402E-19  -1.28671999927663E-15  -1.28742152288780E-15
     -2.93489520974683E-15   1.00000000000000E+00   1.00000000000000E+00   0.00000000000000E+00   0.00000000000000E+00
      1.08026241488625E-04   9.28827622291944E-21   1.08026241488625E-04   2.40241472003808E-15   0.00000000000000E+00
      0.00000000000000E+00   0.00000000000000E+00   0.00000000000000E+00  -1.08026241487338E-04  -7.68199636064719E-25
     -1.08026241487338E-04   1.36865751783368E-15
      1.25189248000000E-02
     -9.68702688000000E-01  -9.68702688000000E-01   0.00000000000000E+00   0.00000000000000E+00   1.61463074138132E-36
     -1.61463074138132E-36   0.00000000000000E+00  -8.31024096428220E-16   0.00000000000000E+00   0.00000000000000E+00
      0.00000000000000E+00   0.00000000000000E+00   6.70083633208059E-19  -1.28722140118854E-15  -1.28655131755533E-15
     -2.93518069742076E-15   1.00000000000000E+00   1.00000000000000E+00   0.00000000000000E+00   0.00000000000000E+00
      1.09764581533595E-04   9.28856351937137E-21   1.09764581533595E-04   2.39980051706494E-15   0.00000000000000E+00
      0.00000000000000E+00   0.00000000000000E+00   0.00000000000000E+00  -1.09764581532309E-04  -7.80618852577446E-25
     -1.09764581532309E-04   1.36640427678405E-15
      1.71263677440000E-02
     -9.57184080640000E-01  -9.57184080640000E-01   0.00000000000000E+00   0.00000000000000E+00   1.58472130282296E-36
     -1.58472130282296E-36   0.00000000000000E+00  -8.24427308276815E-16   0.00000000000000E+00   0.00000000000000E+00
      0.00000000000000E+00   0.00000000000000E+00  -2.27613149701333E-19  -1.28786612249121E-15  -1.28809373564092E-15
     -2.93554942811196E-15   1.00000000000000E+00   1.00000000000000E+00   0.00000000000000E+00   0.00000000000000E+00
      1.12015918852635E-04   9.28893557518701E-21   1.12015918852635E-04   2.39645124486378E-15   0.00000000000000E+00
      0.00000000000000E+00   0.00000000000000E+00   0.00000000000000E+00  -1.12015918851347E-04  -7.96908137838878E-25
     -1.12015918851347E-04   1.36352549152499E-15
      2.30238947123200E-02
     -9.42440263219200E-01  -9.42440263219200E-01   0.00000000000000E+00   0.00000000000000E+00   1.63026811531585E-36
     -1.63026811531585E-36   0.00000000000000E+00  -8.15981800180552E-16   0.00000000000000E+00   0.00000000000000E+00
      0.00000000000000E+00   0.00000000000000E+00  -7.44419521767336E-18  -1.28869202116005E-15  -1.29613621637772E-15
     -2.93602642207261E-15   1.00000000000000E+00   1.00000000000000E+00   0.00000000000000E+00   0.00000000000000E+00
      1.14926684544168E-04   9.28941659482882E-21   1.14926684544168E-04   2.39216077335630E-15   0.00000000000000E+00
      0.00000000000000E+00   0.00000000000000E+00   0.00000000000000E+00  -1.14926684542872E-04  -8.17367884156437E-25
     -1.14926684542872E-04   1.35984744889686E-15
      3.05727292317696E-02
     -9.23568176920576E-01  -9.23568176920576E-01   0.00000000000000E+00   0.00000000000000E+00   1.55425335952774E-36
     -1.55425335952774E-36   0.00000000000000E+00  -8.05169179434313E-16   0.00000000000000E+00   0.00000000000000E+00
      0.00000000000000E+00   0.00000000000000E+00  -3.22518720872564E-17  -1.28975191893003E-15  -1.32200379101729E-15
     -2.93664347805102E-15   1.00000000000000E+00   1.00000000000000E+00   0.00000000000000E+00   0.00000000000000E+00
      1.18704251554193E-04   9.29004083178576E-21   1.18704251554193E-04   2.38666246196194E-15   0.00000000000000E+00
      0.00000000000000E+00   0.00000000000000E+00   0.00000000000000E+00  -1.18704251552871E-04  -8.44624318208132E-25
     -1.18704251552871E-04   1.35515019552339E-15
      4.02352374166651E-02
     -8.99411906458337E-01  -8.99411906458337E-01   0.00000000000000E+00   0.00000000000000E+00   1.58395043075530E-36
     -1.58395043075530E-36   0.00000000000000E+00  -7.91324661590107E-16   0.00000000000000E+00   0.00000000000000E+00
      0.00000000000000E+00   0.00000000000000E+00  -2.97545448602944E-16  -1.29111718183825E-15  -1.58866263044119E-15
     -2.93744724261585E-15   1.00000000000000E+00   1.00000000000000E+00   0.00000000000000E+00   0.00000000000000E+00
      1.23644405857777E-04   9.29085711070464E-21   1.23644405857777E-04   2.37961216852632E-15   0.00000000000000E+00
      0.00000000000000E+00   0.00000000000000E+00   0.00000000000000E+00  -1.23644405856188E-04  -8.79708260244177E-25
     -1.23644405856188E-04   1.34915973567964E-15
      5.26032478933313E-02
     -8.68491880266672E-01  -8.68491880266672E-01   0.00000000000000E+00   0.00000000000000E+00   1.61996308222862E-36
     -1.61996308222862E-36   0.00000000000000E+00  -7.73597538092070E-16   0.00000000000000E+00   0.00000000000000E+00
      0.00000000000000E+00   0.00000000000000E+00  -1.46321815647940E-15  -1.29286580822776E-15  -2.75608396470716E-15
     -2.93849344005791E-15   1.00000000000000E+00   1.00000000000000E+00   0.00000000000000E+00   0.00000000000000E+00
      1.30091145363209E-04   9.29192228917776E-21   1.30091145363209E-04   2.37057239778865E-15   0.00000000000000E+00
      0.00000000000000E+00   0.00000000000000E+00   0.00000000000000E+00  -1.30091145360453E-04  -9.25637896392214E-25
     -1.30091145360453E-04   1.34151858036132E-15
      6.84343013034641E-02
     -8.28914246741340E-01  -8.28914246741340E-01   0.00000000000000E+00   0.00000000000000E+00   1.59660886039739E-36
     -1.59660886039739E-36   0.00000000000000E+00  -7.50896960406539E-16   0.00000000000000E+00   0.00000000000000E+00
      0.00000000000000E+00   0.00000000000000E+00  -1.08247195144397E-14  -1.29510190821128E-15  -1.21198214226510E-14
     -2.93986154384327E-15   1.00000000000000E+00   1.00000000000000E+00   0.00000000000000E+00   0.00000000000000E+00
      1.38538176233716E-04   9.29331781920998E-21   1.38538176233716E-04   2.35897699274482E-15   0.00000000000000E+00
      0.00000000000000E+00   0.00000000000000E+00   0.00000000000000E+00  -1.38538176221596E-04  -9.85874637877888E-25
     -1.38538176221596E-04   1.33178151150499E-15
      8.86980496684340E-02
     -7.78254875828915E-01  -7.78254875828915E-01   0.00000000000000E+00   0.00000000000000E+00   1.51901144386822E-36
     -1.51901144386822E-36   0.00000000000000E+00  -7.21824656698438E-16   0.00000000000000E+00   0.00000000000000E+00
      0.00000000000000E+00   0.00000000000000E+00  -7.18906752405253E-14  -1.29795425513290E-15  -7.31886294956582E-14
     -2.94166015380014E-15   1.00000000000000E+00   1.00000000000000E+00   0.00000000000000E+00   0.00000000000000E+00
      1.49654623896722E-04   9.29515341013363E-21   1.49654623896722E-04   2.34409734827092E-15   0.00000000000000E+00
      0.00000000000000E+00   0.00000000000000E+00   0.00000000000000E+00  -1.49654623823533E-04  -1.06518249708175E-24
     -1.49654623823533E-04   1.31938746222765E-15
      1.00000000000000E-01
     -7.50000000000000E-01  -7.50000000000000E-01   0.00000000000000E+00   0.00000000000000E+00   1.63751898727651E-36
     -1.63751898727651E-36   0.00000000000000E+00  -7.05602513747743E-16   0.00000000000000E+00   0.00000000000000E+00
      0.00000000000000E+00   0.00000000000000E+00  -4.30555326572746E-15  -1.29954084604827E-15  -5.60509411177573E-15
     -2.94268615037570E-15   1.00000000000000E+00   1.00000000000000E+00   0.00000000000000E+00   0.00000000000000E+00
      1.56009240301236E-04   9.29620483055986E-21   1.56009240301236E-04   2.33577912823386E-15   0.00000000000000E+00
      0.00000000000000E+00   0.00000000000000E+00   0.00000000000000E+00  -1.56009240295631E-04  -1.11053202435673E-24
     -1.56009240295631E-04   1.31250953588958E-15
      1.25937597907162E-01
     -6.85156005232096E-01  -6.85156005232096E-01   0.00000000000000E+00   0.00000000000000E+00   1.22783498741344E-36
     -1.22783498741344E-36   0.00000000000000E+00  -6.68353262190444E-16   0.00000000000000E+00   0.00000000000000E+00
      0.00000000000000E+00   0.00000000000000E+00  -2.40159814816848E-13  -1.30317783404497E-15  -2.41462992650893E-13
     -2.94510811190051E-15   1.00000000000000E+00   1.00000000000000E+00   0.00000000000000E+00   0.00000000000000E+00
      1.71061083789874E-04   9.29868956006021E-21   1.71061083789874E-04   2.31663265645362E-15   0.00000000000000E+00
      0.00000000000000E+00   0.00000000000000E+00   0.00000000000000E+00  -1.71061083548411E-04  -1.21828602253453E-24
     -1.71061083548411E-04   1.29682871763734E-15
      1.59137723228328E-01
     -6.02155691929179E-01  -6.02155691929179E-01   0.00000000000000E+00   0.00000000000000E+00  -8.56292374728048E-36
      8.56292374728048E-36   0.00000000000000E+00  -6.20637431408842E-16   0.00000000000000E+00   0.00000000000000E+00
      0.00000000000000E+00   0.00000000000000E+00  -3.54595296129659E-12  -1.30780366882574E-15  -3.54726076496542E-12
     -2.94833646669430E-15   1.00000000000000E+00   1.00000000000000E+00   0.00000000000000E+00   0.00000000000000E+00
      1.91224583249183E-04   9.30199483375534E-21   1.91224583249183E-04   2.29201588222843E-15   0.00000000000000E+00
      0.00000000000000E+00   0.00000000000000E+00   0.00000000000000E+00  -1.91224579701923E-04  -1.36453765935625E-24
     -1.91224579701923E-04   1.27695801587471E-15
      2.00000000000000E-01
     -5.00000000000000E-01  -5.00000000000000E-01   0.00000000000000E+00   0.00000000000000E+00   1.60259740188939E-36
     -1.60259740188939E-36   0.00000000000000E+00  -5.61860715048255E-16   0.00000000000000E+00   0.00000000000000E+00
      0.00000000000000E+00   0.00000000000000E+00  -1.14905040690685E-18  -1.31340874641933E-15  -1.31455779682624E-15
     -2.95249129781600E-15   1.00000000000000E+00   1.00000000000000E+00   0.00000000000000E+00   0.00000000000000E+00
      2.17288099937084E-04   9.30633348448013E-21   2.17288099937084E-04   2.26156427023358E-15   0.00000000000000E+00
      0.00000000000000E+00   0.00000000000000E+00   0.00000000000000E+00  -2.17288099935769E-04  -1.54764363746031E-24
     -2.17288099935769E-04   1.25278774263068E-15
      2.42496160411093E-01
     -3.93759598972266E-01  -3.93759598972266E-01   0.00000000000000E+00   0.00000000000000E+00   1.60762673215303E-36
     -1.60762673215303E-36   0.00000000000000E+00  -5.00688131653979E-16   0.00000000000000E+00   0.00000000000000E+00
      0.00000000000000E+00   0.00000000000000E+00   2.13693752902774E-19  -1.31909609151708E-15  -1.31888239776418E-15
     -2.95700539272163E-15   1.00000000000000E+00   1.00000000000000E+00   0.00000000000000E+00   0.00000000000000E+00
      2.45700631523122E-04   9.31103283936372E-21   2.45700631523122E-04   2.22973258741518E-15   0.00000000000000E+00
      0.00000000000000E+00   0.00000000000000E+00   0.00000000000000E+00  -2.45700631521803E-04  -1.75147284418219E-24
     -2.45700631521803E-04   1.22796093696043E-15
      2.96041322529071E-01
     -2.59896693677322E-01  -2.59896693677322E-01   0.00000000000000E+00   0.00000000000000E+00   1.58324348664260E-36
     -1.58324348664260E-36   0.00000000000000E+00  -4.23562802552357E-16   0.00000000000000E+00   0.00000000000000E+00
      0.00000000000000E+00   0.00000000000000E+00  -9.22469566329491E-18  -1.32601003641443E-15  -1.33523473207773E-15
     -2.96294589481484E-15   1.00000000000000E+00   1.00000000000000E+00   0.00000000000000E+00   0.00000000000000E+00
      2.83146443483246E-04   9.31723012473624E-21   2.83146443483246E-04   2.18941906731226E-15   0.00000000000000E+00
      0.00000000000000E+00   0.00000000000000E+00   0.00000000000000E+00  -2.83146443481911E-04  -2.01953381054822E-24
     -2.83146443481911E-04   1.19708963005494E-15
      3.00000000000000E-01
     -2.50000000000000E-01  -2.50000000000000E-01   0.00000000000000E+00   0.00000000000000E+00   1.64320374008178E-36
     -1.64320374008178E-36   0.00000000000000E+00  -4.17859327896828E-16   0.00000000000000E+00   0.00000000000000E+00
      0.00000000000000E+00   0.00000000000000E+00  -2.20482433657531E-16  -1.32650889252867E-15  -1.54699132618620E-15
     -2.96339534999285E-15   1.00000000000000E+00   1.00000000000000E+00   0.00000000000000E+00   0.00000000000000E+00
      2.85980320396399E-04   9.31769970826967E-21   2.85980320396399E-04   2.18643043306633E-15   0.00000000000000E+00
      0.00000000000000E+00   0.00000000000000E+00   0.00000000000000E+00  -2.85980320394852E-04  -2.03932148653402E-24
     -2.85980320394852E-04   1.19482424482334E-15
      3.67466904268652E-01
     -8.13327393283699E-02  -8.13327393283699E-02   0.00000000000000E+00   0.00000000000000E+00   1.71968152772139E-36
     -1.71968152772139E-36   0.00000000000000E+00  -3.20642241746278E-16   0.00000000000000E+00   0.00000000000000E+00
      0.00000000000000E+00   0.00000000000000E+00  -3.17086501851574E-16  -1.33471246853608E-15  -1.65179897038766E-15
     -2.97124915685999E-15   1.00000000000000E+00   1.00000000000000E+00   0.00000000000000E+00   0.00000000000000E+00
      3.35480102811617E-04   9.32589919244244E-21   3.35480102811617E-04   2.13534443898023E-15   0.00000000000000E+00
      0.00000000000000E+00   0.00000000000000E+00   0.00000000000000E+00  -3.35480102809965E-04  -2.39468059689660E-24
     -3.35480102809965E-04   1.15654695962604E-15
      4.00000000000000E-01
      0.00000000000000E+00   0.00000000000000E+00   0.00000000000000E+00   0.00000000000000E+00   1.59473720892413E-36
     -1.59473720892413E-36   0.00000000000000E+00  -2.73763183700916E-16   0.00000000000000E+00   0.00000000000000E+00
      0.00000000000000E+00   0.00000000000000E+00   4.09812550711632E-18  -1.33843765824846E-15  -1.33433953274134E-15
     -2.97515791280937E-15   1.00000000000000E+00   1.00000000000000E+00   0.00000000000000E+00   0.00000000000000E+00
      3.60062918639863E-04   9.32997735511093E-21   3.60062918639863E-04   2.11062286163826E-15   0.00000000000000E+00
      0.00000000000000E+00   0.00000000000000E+00   0.00000000000000E+00  -3.60062918638528E-04  -2.57073978319732E-24
     -3.60062918638528E-04   1.13829823487203E-15
      4.85008299378502E-01
      2.12520748446254E-01   2.12520748446254E-01   0.00000000000000E+00   0.00000000000000E+00   1.66457368367459E-36
     -1.66457368367459E-36   0.00000000000000E+00  -1.51322042326712E-16   0.00000000000000E+00   0.00000000000000E+00
      0.00000000000000E+00   0.00000000000000E+00   2.11906888524433E-18  -1.34739626029937E-15  -1.34527719141412E-15
     -2.98568769166088E-15   1.00000000000000E+00   1.00000000000000E+00   0.00000000000000E+00   0.00000000000000E+00
      4.26015508639350E-04   9.34092717519534E-21   4.26015508639350E-04   2.04582349756328E-15   0.00000000000000E+00
      0.00000000000000E+00   0.00000000000000E+00   0.00000000000000E+00  -4.26015508638004E-04  -3.04404220569050E-24
     -4.26015508638004E-04   1.09118623642432E-15
      5.00000000000000E-01
      2.50000000000000E-01   2.50000000000000E-01   0.00000000000000E+00   0.00000000000000E+00   1.56679362194941E-36
     -1.56679362194941E-36   0.00000000000000E+00  -1.29742537441999E-16   0.00000000000000E+00   0.00000000000000E+00
      0.00000000000000E+00   0.00000000000000E+00  -3.07473838800646E-18  -1.34886532606476E-15  -1.35194006445277E-15
     -2.98758650782569E-15   1.00000000000000E+00   1.00000000000000E+00   0.00000000000000E+00   0.00000000000000E+00
      4.37859106448092E-04   9.34289557950537E-21   4.37859106448092E-04   2.03437212449613E-15   0.00000000000000E+00
      0.00000000000000E+00   0.00000000000000E+00   0.00000000000000E+00  -4.37859106446739E-04  -3.12963970924164E-24
     -4.37859106446739E-04   1.08295692077155E-15
      5.50000000000000E-01
      3.75000000000000E-01   3.75000000000000E-01   0.00000000000000E+00   0.00000000000000E+00   1.59693038466567E-36
     -1.59693038466567E-36   0.00000000000000E+00  -5.78140664250917E-17   0.00000000000000E+00   0.00000000000000E+00
      0.00000000000000E+00   0.00000000000000E+00   1.46514013184908E-18  -1.35354512792275E-15  -1.35207998779090E-15
     -2.99399907749024E-15   1.00000000000000E+00   1.00000000000000E+00   0.00000000000000E+00   0.00000000000000E+00
      4.77713439320800E-04   9.34952441081659E-21   4.77713439320800E-04   1.99614518187768E-15   0.00000000000000E+00
      0.00000000000000E+00   0.00000000000000E+00   0.00000000000000E+00  -4.77713439319448E-04  -3.41636755625028E-24
     -4.77713439319448E-04   1.05566796203765E-15
      6.00000000000000E-01
      5.00000000000000E-01   5.00000000000000E-01   0.00000000000000E+00   0.00000000000000E+00   1.62022516834922E-36
     -1.62022516834922E-36   0.00000000000000E+00   1.40309458277650E-17   0.00000000000000E+00   0.00000000000000E+00
      0.00000000000000E+00   0.00000000000000E+00   2.53330189477256E-18  -1.35791384000831E-15  -1.35538053811353E-15
     -3.00052272770167E-15   1.00000000000000E+00   1.00000000000000E+00   0.00000000000000E+00   0.00000000000000E+00
      5.18007612398131E-04   9.35623412101036E-21   5.18007612398131E-04   1.95788531457886E-15   0.00000000000000E+00
      0.00000000000000E+00   0.00000000000000E+00   0.00000000000000E+00  -5.18007612396774E-04  -3.70724345306532E-24
     -5.18007612396774E-04   1.02860646729504E-15
      6.61000000000000E-01
      6.52500000000000E-01   6.52500000000000E-01   0.00000000000000E+00   0.00000000000000E+00   2.50923047628512E-36
     -2.50923047628512E-36   0.00000000000000E+00   1.01537996007889E-16   0.00000000000000E+00   0.00000000000000E+00
      0.00000000000000E+00   0.00000000000000E+00   2.59881397026356E-18  -1.36285846720363E-15  -1.36025965323336E-15
     -3.00861258789187E-15   1.00000000000000E+00   1.00000000000000E+00   0.00000000000000E+00   0.00000000000000E+00
      5.67571816420166E-04   9.36449837872691E-21   5.67571816420166E-04   1.91119939284462E-15   0.00000000000000E+00
      0.00000000000000E+00   0.00000000000000E+00   0.00000000000000E+00  -5.67571816418803E-04  -4.06445896910500E-24
     -5.67571816418803E-04   9.95875199039348E-16
      7.00000000000000E-01
      7.50000000000000E-01   7.50000000000000E-01   0.00000000000000E+00   0.00000000000000E+00   2.53691343177405E-36
     -2.53691343177405E-36   0.00000000000000E+00   1.57386240293633E-16   0.00000000000000E+00   0.00000000000000E+00
      0.00000000000000E+00   0.00000000000000E+00   2.17522657876733E-17  -1.36579340889106E-15  -1.34404114310338E-15
     -3.01385096383027E-15   1.00000000000000E+00   1.00000000000000E+00   0.00000000000000E+00   0.00000000000000E+00
      5.99398608267835E-04   9.36979515450448E-21   5.99398608267835E-04   1.88136381056949E-15   0.00000000000000E+00
      0.00000000000000E+00   0.00000000000000E+00   0.00000000000000E+00  -5.99398608266487E-04  -4.29428595191037E-24
     -5.99398608266487E-04   9.75100912967144E-16
      7.75640000000000E-01
      9.39100000000000E-01   9.39100000000000E-01   0.00000000000000E+00   0.00000000000000E+00   1.60655626229091E-36
     -1.60655626229091E-36   0.00000000000000E+00   2.65439357889098E-16   0.00000000000000E+00   0.00000000000000E+00
      0.00000000000000E+00   0.00000000000000E+00   7.88601468951038E-18  -1.37091529932752E-15  -1.36302928463801E-15
     -3.02413811544486E-15   1.00000000000000E+00   1.00000000000000E+00   0.00000000000000E+00   0.00000000000000E+00
      6.61225931520702E-04   9.38014446542754E-21   6.61225931520702E-04   1.82357464970929E-15   0.00000000000000E+00
      0.00000000000000E+00   0.00000000000000E+00   0.00000000000000E+00  -6.61225931519338E-04  -4.74170891131576E-24
     -6.61225931519338E-04   9.35124107846475E-16
      8.00000000000000E-01
      1.00000000000000E+00   1.00000000000000E+00   0.00000000000000E+00   0.00000000000000E+00   1.61889287609566E-36
     -1.61889287609566E-36   0.00000000000000E+00   3.00154823679336E-16   0.00000000000000E+00   0.00000000000000E+00
      0.00000000000000E+00   0.00000000000000E+00   6.46991034835099E-16  -1.37241630475555E-15  -7.25425269920450E-16
     -3.02748311454659E-15   1.00000000000000E+00   1.00000000000000E+00   0.00000000000000E+00   0.00000000000000E+00
      6.81119899501540E-04   9.38345202909628E-21   6.81119899501540E-04   1.80499499451859E-15   0.00000000000000E+00
      0.00000000000000E+00   0.00000000000000E+00   0.00000000000000E+00  -6.81119899500812E-04  -4.88553272144735E-24
     -6.81119899500812E-04   9.22333296348658E-16
      8.46896800000000E-01
      1.11724200000000E+00   1.11724200000000E+00   0.00000000000000E+00   0.00000000000000E+00   1.63041209668906E-36
     -1.63041209668906E-36   0.00000000000000E+00   3.66859945314437E-16   0.00000000000000E+00   0.00000000000000E+00
      0.00000000000000E+00   0.00000000000000E+00   1.37804923284634E-17  -1.37513980676920E-15  -1.36135931444074E-15
     -3.03396236465621E-15   1.00000000000000E+00   1.00000000000000E+00   0.00000000000000E+00   0.00000000000000E+00
      7.19336227798791E-04   9.38987317795521E-21   7.19336227798791E-04   1.76928431383593E-15   0.00000000000000E+00
      0.00000000000000E+00   0.00000000000000E+00   0.00000000000000E+00  -7.19336227797428E-04  -5.16262953828661E-24
     -7.19336227797428E-04   8.97818105505843E-16
      9.00000000000000E-01
      1.25000000000000E+00   1.25000000000000E+00   0.00000000000000E+00   0.00000000000000E+00   1.57280863139876E-36
     -1.57280863139876E-36   0.00000000000000E+00   4.42173830515552E-16   0.00000000000000E+00   0.00000000000000E+00
      0.00000000000000E+00   0.00000000000000E+00   6.82500443956520E-18  -1.37800340967480E-15  -1.37117840523524E-15
     -3.04135677354911E-15   1.00000000000000E+00   1.00000000000000E+00   0.00000000000000E+00   0.00000000000000E+00
      7.62400750793087E-04   9.39709401648024E-21   7.62400750793087E-04   1.72895840628917E-15   0.00000000000000E+00
      0.00000000000000E+00   0.00000000000000E+00   0.00000000000000E+00  -7.62400750791713E-04  -5.47532433331323E-24
     -7.62400750791713E-04   8.70224536744383E-16
      9.58152032000000E-01
      1.39538008000000E+00   1.39538008000000E+00   0.00000000000000E+00   0.00000000000000E+00   1.59356324189201E-36
     -1.59356324189201E-36   0.00000000000000E+00   5.24357669442858E-16   0.00000000000000E+00   0.00000000000000E+00
      0.00000000000000E+00   0.00000000000000E+00  -1.17122248787056E-18  -1.38093506360178E-15  -1.38210628608965E-15
     -3.04951792058147E-15   1.00000000000000E+00   1.00000000000000E+00   0.00000000000000E+00   0.00000000000000E+00
      8.09190587604793E-04   9.40495034113831E-21   8.09190587604793E-04   1.68496193504021E-15   0.00000000000000E+00
      0.00000000000000E+00   0.00000000000000E+00   0.00000000000000E+00  -8.09190587603409E-04  -5.81504408191533E-24
     -8.09190587603409E-04   8.40198316098401E-16
      1.00000000000000E+00
      1.50000000000000E+00   1.50000000000000E+00   0.00000000000000E+00   0.00000000000000E+00   3.77446115116743E-36
     -3.77446115116743E-36   0.00000000000000E+00   5.83298959235932E-16   0.00000000000000E+00   0.00000000000000E+00
      0.00000000000000E+00   0.00000000000000E+00   3.57405880672580E-18  -1.38291472382211E-15  -1.37934066501538E-15
     -3.05542871656521E-15   1.00000000000000E+00   1.00000000000000E+00   0.00000000000000E+00   0.00000000000000E+00
      8.42552503558668E-04   9.41055883085591E-21   8.42552503558668E-04   1.65342331293920E-15   0.00000000000000E+00
      0.00000000000000E+00   0.00000000000000E+00   0.00000000000000E+00  -8.42552503557286E-04  -6.05825830639407E-24
     -8.42552503557286E-04   8.18706444390085E-16
}
