DF-ISE text

Info {
  version   = 1.0
  type      = xyplot
  datasets  = [
    "time"
    "gate OuterVoltage" "gate InnerVoltage" "gate QuasiFermiPotential" "gate DisplacementCurrent" "gate eCurrent"
    "gate hCurrent" "gate TotalCurrent" "gate Charge" "substrate OuterVoltage" "substrate InnerVoltage"
    "substrate QuasiFermiPotential" "substrate DisplacementCurrent" "substrate eCurrent" "substrate hCurrent" "substrate TotalCurrent"
    "substrate Charge" "drain OuterVoltage" "drain InnerVoltage" "drain QuasiFermiPotential" "drain DisplacementCurrent"
    "drain eCurrent" "drain hCurrent" "drain TotalCurrent" "drain Charge" "source OuterVoltage"
    "source InnerVoltage" "source QuasiFermiPotential" "source DisplacementCurrent" "source eCurrent" "source hCurrent"
    "source TotalCurrent" "source Charge" ]
  functions = [
    Time
    OuterVoltage InnerVoltage QuasiFermiPotential DisplacementCurrent eCurrent
    hCurrent TotalCurrent Charge OuterVoltage InnerVoltage
    QuasiFermiPotential DisplacementCurrent eCurrent hCurrent TotalCurrent
    Charge OuterVoltage InnerVoltage QuasiFermiPotential DisplacementCurrent
    eCurrent hCurrent TotalCurrent Charge OuterVoltage
    InnerVoltage QuasiFermiPotential DisplacementCurrent eCurrent hCurrent
    TotalCurrent Charge ]
}

Data {
      0.00000000000000E+00
      1.00000000000000E+00   1.00000000000000E+00   0.00000000000000E+00   0.00000000000000E+00   5.06367467661937E-36
     -5.06367467661937E-36   0.00000000000000E+00   9.46163052092004E-16   0.00000000000000E+00   0.00000000000000E+00
      0.00000000000000E+00   0.00000000000000E+00   8.88666329258448E-13   3.57795965644450E-20   8.88666365038044E-13
      8.21864463108911E-15  -1.00000000000000E+00  -1.00000000000000E+00   0.00000000000000E+00   0.00000000000000E+00
     -4.57028481832708E-22  -8.88666344020596E-13  -8.88666344477624E-13  -5.64901098844601E-15   0.00000000000000E+00
      0.00000000000000E+00   0.00000000000000E+00   0.00000000000000E+00   7.88958830175786E-27  -2.05604289990521E-20
     -2.05604211094638E-20  -3.51579669473510E-15
      1.00000000000000E-03
      9.97500000000000E-01   9.97500000000000E-01   0.00000000000000E+00   0.00000000000000E+00   5.10432620875464E-36
     -5.10432620875464E-36   0.00000000000000E+00   9.37683087395545E-16   0.00000000000000E+00   0.00000000000000E+00
      0.00000000000000E+00   0.00000000000000E+00   8.88643000674744E-13   9.69161192329494E-21   8.88643010366356E-13
      8.22517868874806E-15  -1.00000000000000E+00  -1.00000000000000E+00   0.00000000000000E+00   0.00000000000000E+00
     -4.57028438158366E-22  -8.88643015150018E-13  -8.88643015607047E-13  -5.64803375582413E-15   0.00000000000000E+00
      0.00000000000000E+00   0.00000000000000E+00   0.00000000000000E+00  -2.04224016170385E-26   5.24070707407763E-21
      5.24068665167602E-21  -3.51482802031946E-15
      2.28000000000000E-03
      9.94300000000000E-01   9.94300000000000E-01   0.00000000000000E+00   0.00000000000000E+00   5.10766278812035E-36
     -5.10766278812035E-36   0.00000000000000E+00   9.26846088091841E-16   0.00000000000000E+00   0.00000000000000E+00
      0.00000000000000E+00   0.00000000000000E+00   8.88613144107416E-13  -8.35967885232116E-22   8.88613143271448E-13
      8.23352444349347E-15  -1.00000000000000E+00  -1.00000000000000E+00   0.00000000000000E+00   0.00000000000000E+00
     -4.57028583190143E-22  -8.88613158788443E-13  -8.88613159245472E-13  -5.64678267154273E-15   0.00000000000000E+00
      0.00000000000000E+00   0.00000000000000E+00   0.00000000000000E+00  -7.10448912143525E-26   1.59740921650289E-20
      1.59740211201377E-20  -3.51358786004258E-15
      3.91840000000000E-03
      9.90204000000000E-01   9.90204000000000E-01   0.00000000000000E+00   0.00000000000000E+00   5.05090065333208E-36
     -5.05090065333208E-36   0.00000000000000E+00   9.13003232340070E-16   0.00000000000000E+00   0.00000000000000E+00
      0.00000000000000E+00   0.00000000000000E+00   8.88574935681731E-13   3.02122681165094E-20   8.88574965894000E-13
      8.24417771595126E-15  -1.00000000000000E+00  -1.00000000000000E+00   0.00000000000000E+00   0.00000000000000E+00
     -4.57028513970431E-22  -8.88574951347957E-13  -8.88574951804986E-13  -5.64518091326137E-15   0.00000000000000E+00
      0.00000000000000E+00   0.00000000000000E+00   0.00000000000000E+00  -2.75928489133390E-26  -1.40889873669099E-20
     -1.40890149597588E-20  -3.51200003502995E-15
      6.01555200000000E-03
      9.84961120000000E-01   9.84961120000000E-01   0.00000000000000E+00   0.00000000000000E+00   5.10579266366784E-36
     -5.10579266366784E-36   0.00000000000000E+00   8.95331213468189E-16   0.00000000000000E+00   0.00000000000000E+00
      0.00000000000000E+00   0.00000000000000E+00   8.88526042309657E-13   3.85517430182252E-20   8.88526080861400E-13
      8.25776577767209E-15  -1.00000000000000E+00  -1.00000000000000E+00   0.00000000000000E+00   0.00000000000000E+00
     -4.57028567533303E-22  -8.88526058952806E-13  -8.88526059409835E-13  -5.64313005736400E-15   0.00000000000000E+00
      0.00000000000000E+00   0.00000000000000E+00   0.00000000000000E+00   5.45716012084325E-26  -2.14516197505140E-20
     -2.14515651789128E-20  -3.50996693377627E-15
      8.69990656000000E-03
      9.78250233600000E-01   9.78250233600000E-01   0.00000000000000E+00   0.00000000000000E+00   5.06358987879285E-36
     -5.06358987879285E-36   0.00000000000000E+00   8.72788035584854E-16   0.00000000000000E+00   0.00000000000000E+00
      0.00000000000000E+00   0.00000000000000E+00   8.88463483965664E-13   2.56077955299032E-20   8.88463509573459E-13
      8.27507938499646E-15  -1.00000000000000E+00  -1.00000000000000E+00   0.00000000000000E+00   0.00000000000000E+00
     -4.57028457935427E-22  -8.88463498645920E-13  -8.88463499102949E-13  -5.64050397343833E-15   0.00000000000000E+00
      0.00000000000000E+00   0.00000000000000E+00   0.00000000000000E+00  -1.27946420040380E-26  -1.04704963911808E-20
     -1.04705091858228E-20  -3.50736344714298E-15
      1.21358803968000E-02
      9.69660299008000E-01   9.69660299008000E-01   0.00000000000000E+00   0.00000000000000E+00   5.12817322596537E-36
     -5.12817322596537E-36   0.00000000000000E+00   8.44059452662851E-16   0.00000000000000E+00   0.00000000000000E+00
      0.00000000000000E+00   0.00000000000000E+00   8.88383457081720E-13  -1.38361028591047E-20   8.88383443245617E-13
      8.29711068737299E-15  -1.00000000000000E+00  -1.00000000000000E+00   0.00000000000000E+00   0.00000000000000E+00
     -4.57028644169413E-22  -8.88383473506876E-13  -8.88383473963905E-13  -5.63714097380701E-15   0.00000000000000E+00
      0.00000000000000E+00   0.00000000000000E+00   0.00000000000000E+00   1.07076955363714E-25   3.07181816884584E-20
      3.07182887654138E-20  -3.50402916622881E-15
      1.65339269079040E-02
      9.58665182730240E-01   9.58665182730240E-01   0.00000000000000E+00   0.00000000000000E+00   5.06216443431710E-36
     -5.06216443431710E-36   0.00000000000000E+00   8.07495381436245E-16   0.00000000000000E+00   0.00000000000000E+00
      0.00000000000000E+00   0.00000000000000E+00   8.88281114676710E-13  -1.50618524644167E-20   8.88281099614857E-13
      8.32509666080883E-15  -1.00000000000000E+00  -1.00000000000000E+00   0.00000000000000E+00   0.00000000000000E+00
     -4.57028563413082E-22  -8.88281128066798E-13  -8.88281128523827E-13  -5.63283370820960E-15   0.00000000000000E+00
      0.00000000000000E+00   0.00000000000000E+00   0.00000000000000E+00   6.34402748748368E-27   2.89089610047334E-20
      2.89089673487609E-20  -3.49975833403548E-15
      2.21634264421171E-02
      9.44591433894707E-01   9.44591433894707E-01   0.00000000000000E+00   0.00000000000000E+00   5.15209463694211E-36
     -5.15209463694211E-36   0.00000000000000E+00   7.61036637591298E-16   0.00000000000000E+00   0.00000000000000E+00
      0.00000000000000E+00   0.00000000000000E+00   8.88150296417881E-13  -3.99182345903903E-20   8.88150256499646E-13
      8.36056638873497E-15  -1.00000000000000E+00  -1.00000000000000E+00   0.00000000000000E+00   0.00000000000000E+00
     -4.57028456287338E-22  -8.88150311165607E-13  -8.88150311622635E-13  -5.62731613890277E-15   0.00000000000000E+00
      0.00000000000000E+00   0.00000000000000E+00   0.00000000000000E+00  -7.54824258443458E-27   5.51229979109093E-20
      5.51229903626667E-20  -3.49428688742349E-15
      2.93691858459099E-02
      9.26577035385225E-01   9.26577035385225E-01   0.00000000000000E+00   0.00000000000000E+00   5.31793159804216E-36
     -5.31793159804216E-36   0.00000000000000E+00   7.02134266282615E-16   0.00000000000000E+00   0.00000000000000E+00
      0.00000000000000E+00   0.00000000000000E+00   8.87983208672311E-13  -4.34349202358743E-19   8.87982774323108E-13
      8.40538818492649E-15  -1.00000000000000E+00  -1.00000000000000E+00   0.00000000000000E+00   0.00000000000000E+00
     -4.57016925437040E-22  -8.87983222370292E-13  -8.87983222827309E-13  -5.62024672746934E-15   0.00000000000000E+00
      0.00000000000000E+00   0.00000000000000E+00   0.00000000000000E+00  -3.16419064029203E-26   4.48504233268344E-19
      4.48504201626437E-19  -3.48727572373979E-15
      3.85925578827647E-02
      9.03518605293088E-01   9.03518605293088E-01   0.00000000000000E+00   0.00000000000000E+00   6.74401100106445E-36
     -6.74401100106445E-36   0.00000000000000E+00   6.27666851771612E-16   0.00000000000000E+00   0.00000000000000E+00
      0.00000000000000E+00   0.00000000000000E+00   8.87770088638748E-13  -2.95058631126925E-18   8.87767138052436E-13
      8.46180890886656E-15  -1.00000000000000E+00  -1.00000000000000E+00   0.00000000000000E+00   0.00000000000000E+00
     -4.56680810174123E-22  -8.87770090295598E-13  -8.87770090752279E-13  -5.61118669637215E-15   0.00000000000000E+00
      0.00000000000000E+00   0.00000000000000E+00   0.00000000000000E+00  -6.63089505040885E-26   2.95269991047493E-18
      2.95269984416598E-18  -3.47828906426602E-15
      5.03984740899388E-02
      8.74003814775153E-01   8.74003814775153E-01   0.00000000000000E+00   0.00000000000000E+00   5.02168017370372E-36
     -5.02168017370372E-36   0.00000000000000E+00   5.33865232246272E-16   0.00000000000000E+00   0.00000000000000E+00
      0.00000000000000E+00   0.00000000000000E+00   8.87498883727257E-13  -7.31662036705236E-21   8.87498876410637E-13
      8.53247309905450E-15  -1.00000000000000E+00  -1.00000000000000E+00   0.00000000000000E+00   0.00000000000000E+00
     -4.57028860893034E-22  -8.87498897328042E-13  -8.87498897785071E-13  -5.59957187816937E-15   0.00000000000000E+00
      0.00000000000000E+00   0.00000000000000E+00   0.00000000000000E+00   4.87837382784645E-29   2.13744327730368E-20
      2.13744328218205E-20  -3.46676645313140E-15
      6.52739285109782E-02
      8.36815178722555E-01   8.36815178722555E-01   0.00000000000000E+00   0.00000000000000E+00   5.04641250400722E-36
     -5.04641250400722E-36   0.00000000000000E+00   4.18073444308499E-16   0.00000000000000E+00   0.00000000000000E+00
      0.00000000000000E+00   0.00000000000000E+00   8.87160486772125E-13  -6.83526727171779E-21   8.87160479936858E-13
      8.61905347713715E-15  -1.00000000000000E+00  -1.00000000000000E+00   0.00000000000000E+00   0.00000000000000E+00
     -4.57029048775108E-22  -8.87160502419894E-13  -8.87160502876923E-13  -5.58490920312534E-15   0.00000000000000E+00
      0.00000000000000E+00   0.00000000000000E+00   0.00000000000000E+00  -3.59439611815627E-26   2.29401001960265E-20
      2.29400642520653E-20  -3.45221771832031E-15
      8.40170010814878E-02
      7.89957497296280E-01   7.89957497296280E-01   0.00000000000000E+00   0.00000000000000E+00   5.23121983392995E-36
     -5.23121983392995E-36   0.00000000000000E+00   2.75882924116876E-16   0.00000000000000E+00   0.00000000000000E+00
      0.00000000000000E+00   0.00000000000000E+00   8.86740429295860E-13   3.61745176564090E-20   8.86740465470378E-13
      8.72434923806167E-15  -1.00000000000000E+00  -1.00000000000000E+00   0.00000000000000E+00   0.00000000000000E+00
     -4.57029110578422E-22  -8.86740443272972E-13  -8.86740443730001E-13  -5.56639131191745E-15   0.00000000000000E+00
      0.00000000000000E+00   0.00000000000000E+00   0.00000000000000E+00  -5.37980135278403E-26  -2.17403247117128E-20
     -2.17403785097263E-20  -3.43384085026105E-15
      1.00000000000000E-01
      7.50000000000000E-01   7.50000000000000E-01   0.00000000000000E+00   0.00000000000000E+00   5.14306210305528E-36
     -5.14306210305528E-36   0.00000000000000E+00   1.57756534145732E-16   0.00000000000000E+00   0.00000000000000E+00
      0.00000000000000E+00   0.00000000000000E+00   8.86389646959966E-13   6.15123123609567E-20   8.86389708472278E-13
      8.81094009315779E-15  -1.00000000000000E+00  -1.00000000000000E+00   0.00000000000000E+00   0.00000000000000E+00
     -4.57029150956587E-22  -8.86389660262886E-13  -8.86389660719915E-13  -5.55056403453871E-15   0.00000000000000E+00
      0.00000000000000E+00   0.00000000000000E+00   0.00000000000000E+00  -4.67050514929845E-26  -4.77523164596397E-20
     -4.77523631646911E-20  -3.41813259276483E-15
      1.23616271438842E-01
      6.90959321402895E-01   6.90959321402895E-01   0.00000000000000E+00   0.00000000000000E+00   5.06028889050419E-36
     -5.06028889050419E-36   0.00000000000000E+00  -1.18711623660885E-17   0.00000000000000E+00   0.00000000000000E+00
      0.00000000000000E+00   0.00000000000000E+00   8.85885290268062E-13  -4.61399145033840E-21   8.85885285654070E-13
      8.93385479999639E-15  -1.00000000000000E+00  -1.00000000000000E+00   0.00000000000000E+00   0.00000000000000E+00
     -4.57029179798134E-22  -8.85885307129480E-13  -8.85885307586510E-13  -5.52711963638885E-15   0.00000000000000E+00
      0.00000000000000E+00   0.00000000000000E+00   0.00000000000000E+00  -8.05631308412226E-27   2.19324473148309E-20
      2.19324392585179E-20  -3.39486400124146E-15
      1.53372773451783E-01
      6.16568066370542E-01   6.16568066370542E-01   0.00000000000000E+00   0.00000000000000E+00   5.11156724987279E-36
     -5.11156724987279E-36   0.00000000000000E+00  -2.18058665207917E-16   0.00000000000000E+00   0.00000000000000E+00
      0.00000000000000E+00   0.00000000000000E+00   8.85275525565255E-13  -1.67434841887459E-20   8.85275508821771E-13
      9.08100145943680E-15  -1.00000000000000E+00  -1.00000000000000E+00   0.00000000000000E+00   0.00000000000000E+00
     -4.57029383337048E-22  -8.85275542975274E-13  -8.85275543432304E-13  -5.49748644928852E-15   0.00000000000000E+00
      0.00000000000000E+00   0.00000000000000E+00   0.00000000000000E+00   5.67545294080616E-27   3.46105281324810E-20
      3.46105338079339E-20  -3.36545634494035E-15
      1.90865965988089E-01
      5.22835085029777E-01   5.22835085029777E-01   0.00000000000000E+00   0.00000000000000E+00   5.78926611357649E-36
     -5.78926611357649E-36   0.00000000000000E+00  -4.67528821117959E-16   0.00000000000000E+00   0.00000000000000E+00
      0.00000000000000E+00   0.00000000000000E+00   8.84568506527036E-13  -3.47891273807669E-19   8.84568158635763E-13
      9.25581998766449E-15  -1.00000000000000E+00  -1.00000000000000E+00   0.00000000000000E+00   0.00000000000000E+00
     -4.57028042617157E-22  -8.84568523056091E-13  -8.84568523513119E-13  -5.46001122857377E-15   0.00000000000000E+00
      0.00000000000000E+00   0.00000000000000E+00   0.00000000000000E+00  -3.91948458746565E-26   3.64877393527381E-19
      3.64877354332535E-19  -3.32827993797278E-15
      2.00000000000000E-01
      5.00000000000000E-01   5.00000000000000E-01   0.00000000000000E+00   0.00000000000000E+00   5.11787978345753E-36
     -5.11787978345753E-36   0.00000000000000E+00  -5.26766040143501E-16   0.00000000000000E+00   0.00000000000000E+00
      0.00000000000000E+00   0.00000000000000E+00   8.84413116363011E-13  -2.24764455771698E-20   8.84413093886565E-13
      9.29683060563044E-15  -1.00000000000000E+00  -1.00000000000000E+00   0.00000000000000E+00   0.00000000000000E+00
     -4.57029726139429E-22  -8.84413135221688E-13  -8.84413135678718E-13  -5.45085974003024E-15   0.00000000000000E+00
      0.00000000000000E+00   0.00000000000000E+00   0.00000000000000E+00   1.01890303516934E-26   4.17921446003361E-20
      4.17921547893665E-20  -3.31920482545674E-15
      2.47241422595745E-01
      3.81896443510637E-01   3.81896443510637E-01   0.00000000000000E+00   0.00000000000000E+00   5.11670062063833E-36
     -5.11670062063833E-36   0.00000000000000E+00  -8.24671159529134E-16   0.00000000000000E+00   0.00000000000000E+00
      0.00000000000000E+00   0.00000000000000E+00   8.83763377896563E-13  -2.48329562816631E-20   8.83763353063607E-13
      9.50024409202929E-15  -1.00000000000000E+00  -1.00000000000000E+00   0.00000000000000E+00   0.00000000000000E+00
     -4.57030021147248E-22  -8.83763412409413E-13  -8.83763412866443E-13  -5.40340120307308E-15   0.00000000000000E+00
      0.00000000000000E+00   0.00000000000000E+00   0.00000000000000E+00   6.93107184901326E-26   5.98027651980146E-20
      5.98028345087330E-20  -3.27217172942706E-15
      3.00000000000000E-01
      2.50000000000000E-01   2.50000000000000E-01   0.00000000000000E+00   0.00000000000000E+00   5.11649731384237E-36
     -5.11649731384237E-36   0.00000000000000E+00  -1.14227830986450E-15   0.00000000000000E+00   0.00000000000000E+00
      0.00000000000000E+00   0.00000000000000E+00   8.83293272807514E-13   3.48349580841593E-20   8.83293307642472E-13
      9.71194378464134E-15  -1.00000000000000E+00  -1.00000000000000E+00   0.00000000000000E+00   0.00000000000000E+00
     -4.57030390319043E-22  -8.83293410066264E-13  -8.83293410523294E-13  -5.35017005316092E-15   0.00000000000000E+00
      0.00000000000000E+00   0.00000000000000E+00   0.00000000000000E+00  -6.68822547645158E-26   1.02880888039554E-19
      1.02880821157299E-19  -3.21949542161591E-15
      3.58579364018724E-01
      1.03551589953189E-01   1.03551589953189E-01   0.00000000000000E+00   0.00000000000000E+00   5.08731589043580E-36
     -5.08731589043580E-36   0.00000000000000E+00  -1.47910758709471E-15   0.00000000000000E+00   0.00000000000000E+00
      0.00000000000000E+00   0.00000000000000E+00   8.82819711110793E-13   2.99598131708407E-20   8.82819741070606E-13
      9.93082516511252E-15  -1.00000000000000E+00  -1.00000000000000E+00   0.00000000000000E+00   0.00000000000000E+00
     -4.57030798220916E-22  -8.82821124559015E-13  -8.82821125016045E-13  -5.29081874681606E-15   0.00000000000000E+00
      0.00000000000000E+00   0.00000000000000E+00   0.00000000000000E+00  -1.07857017744694E-25   1.38394554841786E-18
      1.38394544056084E-18  -3.16089883120175E-15
      4.00000000000000E-01
      0.00000000000000E+00   0.00000000000000E+00   0.00000000000000E+00   0.00000000000000E+00   5.07708663324986E-36
     -5.07708663324986E-36   0.00000000000000E+00  -1.70944140701176E-15   0.00000000000000E+00   0.00000000000000E+00
      0.00000000000000E+00   0.00000000000000E+00   8.82313387049435E-13  -6.31073817106709E-20   8.82313323942053E-13
      1.00776040832094E-14  -1.00000000000000E+00  -1.00000000000000E+00   0.00000000000000E+00   0.00000000000000E+00
     -4.57031173985064E-22  -8.82322099018060E-13  -8.82322099475091E-13  -5.24871692260311E-15   0.00000000000000E+00
      0.00000000000000E+00   0.00000000000000E+00   0.00000000000000E+00  -6.09689136990009E-26   8.77553309861564E-18
      8.77553303764672E-18  -3.11944575359452E-15
      4.71466824102843E-01
     -1.78667060257109E-01  -1.78667060257109E-01   0.00000000000000E+00   0.00000000000000E+00   5.18265915291030E-36
     -5.18265915291030E-36   0.00000000000000E+00  -2.09536876845863E-15   0.00000000000000E+00   0.00000000000000E+00
      0.00000000000000E+00   0.00000000000000E+00   8.80945750642368E-13  -1.37427554585720E-19   8.80945613214814E-13
      1.03192126094499E-14  -1.00000000000000E+00  -1.00000000000000E+00   0.00000000000000E+00   0.00000000000000E+00
     -4.57031521731711E-22  -8.81195023413447E-13  -8.81195023870479E-13  -5.17585403173344E-15   0.00000000000000E+00
      0.00000000000000E+00   0.00000000000000E+00   0.00000000000000E+00   6.16120637962965E-27   2.49410655660709E-16
      2.49410655666871E-16  -3.04798980925782E-15
      5.00000000000000E-01
     -2.50000000000000E-01  -2.50000000000000E-01   0.00000000000000E+00   0.00000000000000E+00   5.17171181545882E-36
     -5.17171181545882E-36   0.00000000000000E+00  -2.24588193839020E-15   0.00000000000000E+00   0.00000000000000E+00
      0.00000000000000E+00   0.00000000000000E+00   8.80388682087407E-13  -4.79417632901576E-20   8.80388634145643E-13
      1.04121009697775E-14  -1.00000000000000E+00  -1.00000000000000E+00   0.00000000000000E+00   0.00000000000000E+00
     -4.57031639570030E-22  -8.81398512651199E-13  -8.81398513108230E-13  -5.14669765152938E-15   0.00000000000000E+00
      0.00000000000000E+00   0.00000000000000E+00   0.00000000000000E+00  -6.02431809976519E-26   1.00987896264794E-15
      1.00987896258770E-15  -3.01952137985785E-15
      5.82901515959298E-01
     -4.57253789898246E-01  -4.57253789898246E-01   0.00000000000000E+00   0.00000000000000E+00   8.38274859351327E-36
     -8.38274859351327E-36   0.00000000000000E+00  -2.67293116067974E-15   0.00000000000000E+00   0.00000000000000E+00
      0.00000000000000E+00   0.00000000000000E+00   8.80069551439521E-13  -8.29217518579983E-20   8.80069468517769E-13
      1.06720044801058E-14  -1.00000000000000E+00  -1.00000000000000E+00   0.00000000000000E+00   0.00000000000000E+00
     -4.57032286444716E-22  -9.48946161809379E-13  -9.48946162266411E-13  -5.06182768370387E-15   0.00000000000000E+00
      0.00000000000000E+00   0.00000000000000E+00   0.00000000000000E+00  -9.20806021497993E-27   6.88766937486500E-14
      6.88766937486408E-14  -2.93724563572216E-15
      6.00000000000000E-01
     -5.00000000000000E-01  -5.00000000000000E-01   0.00000000000000E+00   0.00000000000000E+00   5.28321183272075E-36
     -5.28321183272075E-36   0.00000000000000E+00  -2.75930519557901E-15   0.00000000000000E+00   0.00000000000000E+00
      0.00000000000000E+00   0.00000000000000E+00   8.80435889714387E-13   9.71443531759255E-20   8.80435986858740E-13
      1.07240122335957E-14  -1.00000000000000E+00  -1.00000000000000E+00   0.00000000000000E+00   0.00000000000000E+00
     -4.57032286444716E-22  -1.04918322821906E-12  -1.04918322867609E-12  -5.04430181946273E-15   0.00000000000000E+00
      0.00000000000000E+00   0.00000000000000E+00   0.00000000000000E+00   8.32148774736800E-28   1.68747241817347E-13
      1.68747241817348E-13  -2.92040521855402E-15
      6.97823788831972E-01
     -7.44559472079930E-01  -7.44559472079930E-01   0.00000000000000E+00   0.00000000000000E+00   5.40332222290687E-36
     -5.40332222290687E-36   0.00000000000000E+00  -3.24306541439839E-15   0.00000000000000E+00   0.00000000000000E+00
      0.00000000000000E+00   0.00000000000000E+00   8.87644110839100E-13   1.36624823888159E-19   8.87644247463924E-13
      1.10127017681914E-14  -1.00000000000000E+00  -1.00000000000000E+00   0.00000000000000E+00   0.00000000000000E+00
     -4.57033042093235E-22  -3.38845930588426E-11  -3.38845930592996E-11  -4.94397964089747E-15   0.00000000000000E+00
      0.00000000000000E+00   0.00000000000000E+00   0.00000000000000E+00  -1.57346560200391E-26   3.29969488118358E-11
      3.29969488118357E-11  -2.82565671289558E-15
      7.00000000000000E-01
     -7.50000000000000E-01  -7.50000000000000E-01   0.00000000000000E+00   0.00000000000000E+00   8.59860636248900E-36
     -8.59860636248900E-36   0.00000000000000E+00  -3.25361456714032E-15   0.00000000000000E+00   0.00000000000000E+00
      0.00000000000000E+00   0.00000000000000E+00   8.88014686959579E-13  -4.67509837369219E-19   8.88014219449741E-13
      1.10189543730331E-14  -1.00000000000000E+00  -1.00000000000000E+00   0.00000000000000E+00   0.00000000000000E+00
     -4.57033115433167E-22  -3.81094310546699E-11  -3.81094310551269E-11  -4.94174794193740E-15   0.00000000000000E+00
      0.00000000000000E+00   0.00000000000000E+00   0.00000000000000E+00  -5.20364869027019E-27   3.72214168356772E-11
      3.72214168356772E-11  -2.82359186395532E-15
      7.50000000000000E-01
     -8.75000000000000E-01  -8.75000000000000E-01   0.00000000000000E+00   0.00000000000000E+00   5.55269444323679E-36
     -5.55269444323679E-36   0.00000000000000E+00  -3.49317686181233E-15   0.00000000000000E+00   0.00000000000000E+00
      0.00000000000000E+00   0.00000000000000E+00   8.97828185586083E-13  -1.70689949414634E-19   8.97828014896134E-13
      1.11605901012976E-14  -1.00000000000000E+00  -1.00000000000000E+00   0.00000000000000E+00   0.00000000000000E+00
     -4.57033342869363E-22  -6.20457442835920E-10  -6.20457442836377E-10  -4.89049374876305E-15   0.00000000000000E+00
      0.00000000000000E+00   0.00000000000000E+00   0.00000000000000E+00  -2.08343561417006E-27   6.19559614821483E-10
      6.19559614821483E-10  -2.77691949072232E-15
      8.00000000000000E-01
     -1.00000000000000E+00  -1.00000000000000E+00   0.00000000000000E+00   0.00000000000000E+00   5.79638582454998E-36
     -5.79638582454998E-36   0.00000000000000E+00  -3.72849603956710E-15   0.00000000000000E+00   0.00000000000000E+00
      0.00000000000000E+00   0.00000000000000E+00   9.07783247052524E-13  -2.04301837151779E-19   9.07783042750687E-13
      1.12999802818932E-14  -1.00000000000000E+00  -1.00000000000000E+00   0.00000000000000E+00   0.00000000000000E+00
     -4.57034590472261E-22  -1.11417679982378E-08  -1.11417679982383E-08  -4.83930830917325E-15   0.00000000000000E+00
      0.00000000000000E+00   0.00000000000000E+00   0.00000000000000E+00  -2.13680521779069E-27   1.11408602151956E-08
      1.11408602151956E-08  -2.73217593315280E-15
      8.61000000000000E-01
     -1.15250000000000E+00  -1.15250000000000E+00   0.00000000000000E+00   0.00000000000000E+00   6.32194093371123E-36
     -6.32194093371123E-36   0.00000000000000E+00  -4.03303753168204E-15   0.00000000000000E+00   0.00000000000000E+00
      0.00000000000000E+00   0.00000000000000E+00   9.24468391156813E-13  -6.11227519369204E-19   9.24467779929294E-13
      1.14908957155539E-14  -1.00000000000000E+00  -1.00000000000000E+00   0.00000000000000E+00   0.00000000000000E+00
     -4.57057410727911E-22  -2.90278766124435E-07  -2.90278766124435E-07  -4.77702014715614E-15   0.00000000000000E+00
      0.00000000000000E+00   0.00000000000000E+00   0.00000000000000E+00   3.12585370260252E-26   2.90277841656658E-07
      2.90277841656658E-07  -2.68083803671569E-15
      9.00000000000000E-01
     -1.25000000000000E+00  -1.25000000000000E+00   0.00000000000000E+00   0.00000000000000E+00   7.72419518347826E-36
     -7.72419518347826E-36   0.00000000000000E+00  -4.26231115929422E-15   0.00000000000000E+00   0.00000000000000E+00
      0.00000000000000E+00   0.00000000000000E+00   9.27399472029665E-13  -3.65825548896157E-19   9.27399106204116E-13
      1.16491916296227E-14  -1.00000000000000E+00  -1.00000000000000E+00   0.00000000000000E+00   0.00000000000000E+00
     -4.57131449449959E-22  -1.20587710200116E-06  -1.20587710200116E-06  -4.73732733818018E-15   0.00000000000000E+00
      0.00000000000000E+00   0.00000000000000E+00   0.00000000000000E+00   5.45899751018406E-26   1.20587617460207E-06
      1.20587617460207E-06  -2.64955313214833E-15
      9.74420000000000E-01
     -1.43605000000000E+00  -1.43605000000000E+00   0.00000000000000E+00   0.00000000000000E+00   1.92138589333557E-35
     -1.92138589333557E-35   0.00000000000000E+00  -4.74802559144676E-15   0.00000000000000E+00   0.00000000000000E+00
      0.00000000000000E+00   0.00000000000000E+00   9.39255351383319E-13   4.06808747360501E-19   9.39255758192066E-13
      1.20018536010493E-14  -1.00000000000000E+00  -1.00000000000000E+00   0.00000000000000E+00   0.00000000000000E+00
     -4.57497267385569E-22  -5.74300654831245E-06  -5.74300654831245E-06  -4.66198468051474E-15   0.00000000000000E+00
      0.00000000000000E+00   0.00000000000000E+00   0.00000000000000E+00   4.33403605578562E-25   5.74300560905674E-06
      5.74300560905674E-06  -2.59184332908778E-15
      1.00000000000000E+00
     -1.50000000000000E+00  -1.50000000000000E+00   0.00000000000000E+00   0.00000000000000E+00   6.19892649674139E-33
     -6.19892649674139E-33   0.00000000000000E+00  -4.92148987584120E-15   0.00000000000000E+00   0.00000000000000E+00
      0.00000000000000E+00   0.00000000000000E+00   9.46684435405557E-13  -1.71279758600400E-16   9.46513155646957E-13
      1.21301882871646E-14  -1.00000000000000E+00  -1.00000000000000E+00   0.00000000000000E+00   0.00000000000000E+00
     -4.57691803616843E-22  -8.15977756135515E-06  -8.15977756135515E-06  -4.63623814362395E-15   0.00000000000000E+00
      0.00000000000000E+00   0.00000000000000E+00   0.00000000000000E+00   5.89635762496463E-25   8.15977661484210E-06
      8.15977661484210E-06  -2.57246026769949E-15
}
