DF-ISE text

Info {
  version   = 1.0
  type      = xyplot
  datasets  = [
    "time"
    "gate OuterVoltage" "gate InnerVoltage" "gate QuasiFermiPotential" "gate DisplacementCurrent" "gate eCurrent"
    "gate hCurrent" "gate TotalCurrent" "gate Charge" "substrate OuterVoltage" "substrate InnerVoltage"
    "substrate QuasiFermiPotential" "substrate DisplacementCurrent" "substrate eCurrent" "substrate hCurrent" "substrate TotalCurrent"
    "substrate Charge" "drain OuterVoltage" "drain InnerVoltage" "drain QuasiFermiPotential" "drain DisplacementCurrent"
    "drain eCurrent" "drain hCurrent" "drain TotalCurrent" "drain Charge" "source OuterVoltage"
    "source InnerVoltage" "source QuasiFermiPotential" "source DisplacementCurrent" "source eCurrent" "source hCurrent"
    "source TotalCurrent" "source Charge" ]
  functions = [
    Time
    OuterVoltage InnerVoltage QuasiFermiPotential DisplacementCurrent eCurrent
    hCurrent TotalCurrent Charge OuterVoltage InnerVoltage
    QuasiFermiPotential DisplacementCurrent eCurrent hCurrent TotalCurrent
    Charge OuterVoltage InnerVoltage QuasiFermiPotential DisplacementCurrent
    eCurrent hCurrent TotalCurrent Charge OuterVoltage
    InnerVoltage QuasiFermiPotential DisplacementCurrent eCurrent hCurrent
    TotalCurrent Charge ]
}

Data {
      0.00000000000000E+00
      1.00000000000000E+00   1.00000000000000E+00   0.00000000000000E+00   0.00000000000000E+00   2.40470826846887E-37
     -2.40470826846887E-37   0.00000000000000E+00   7.83617822450289E-16   0.00000000000000E+00   0.00000000000000E+00
      0.00000000000000E+00   0.00000000000000E+00   7.04444979846755E-15   7.61911310910909E-19   7.04521170977846E-15
      3.03627452640286E-15  -1.00000000000000E+00  -1.00000000000000E+00   0.00000000000000E+00   0.00000000000000E+00
     -1.02955719769567E-21  -1.94154599599740E-03  -1.94154599599740E-03  -2.41862339978015E-15   0.00000000000000E+00
      0.00000000000000E+00   0.00000000000000E+00   0.00000000000000E+00   1.43729156434316E-22   1.94154599599036E-03
      1.94154599599036E-03  -1.40126894907300E-15
      1.00000000000000E-03
      9.97500000000000E-01   9.97500000000000E-01   0.00000000000000E+00   0.00000000000000E+00   2.90435780126196E-35
     -2.90435780126196E-35   0.00000000000000E+00   7.82459061840512E-16   0.00000000000000E+00   0.00000000000000E+00
      0.00000000000000E+00   0.00000000000000E+00   7.04448772926771E-15  -3.27640046726968E-15   3.76808726199803E-15
      3.03628014360513E-15  -1.00000000000000E+00  -1.00000000000000E+00   0.00000000000000E+00   0.00000000000000E+00
     -1.03010160649811E-21  -1.94191586828989E-03  -1.94191586828989E-03  -2.41801794139534E-15   0.00000000000000E+00
      0.00000000000000E+00   0.00000000000000E+00   0.00000000000000E+00   1.43757371091767E-22   1.94191586828612E-03
      1.94191586828612E-03  -1.40072126405030E-15
      2.30000000000000E-03
      9.94250000000000E-01   9.94250000000000E-01   0.00000000000000E+00   0.00000000000000E+00   6.33643200682171E-37
     -6.33643200682171E-37   0.00000000000000E+00   7.80952700097697E-16   0.00000000000000E+00   0.00000000000000E+00
      0.00000000000000E+00   0.00000000000000E+00   7.04453704852876E-15  -4.74586034552061E-17   6.99707844507355E-15
      3.03628744628058E-15  -1.00000000000000E+00  -1.00000000000000E+00   0.00000000000000E+00   0.00000000000000E+00
     -1.03013874783135E-21  -1.94239674574131E-03  -1.94239674574131E-03  -2.41723085457538E-15   0.00000000000000E+00
      0.00000000000000E+00   0.00000000000000E+00   0.00000000000000E+00   1.43793056929731E-22   1.94239674573431E-03
      1.94239674573431E-03  -1.40000929180289E-15
      3.99000000000000E-03
      9.90025000000000E-01   9.90025000000000E-01   0.00000000000000E+00   0.00000000000000E+00   1.36229771423938E-36
     -1.36229771423938E-36   0.00000000000000E+00   7.78994475634207E-16   0.00000000000000E+00   0.00000000000000E+00
      0.00000000000000E+00   0.00000000000000E+00   7.04460118039708E-15  -1.51889939045853E-16   6.89271124135123E-15
      3.03629694032018E-15  -1.00000000000000E+00  -1.00000000000000E+00   0.00000000000000E+00   0.00000000000000E+00
     -1.03019255164303E-21  -1.94302196249961E-03  -1.94302196249961E-03  -2.41620765699068E-15   0.00000000000000E+00
      0.00000000000000E+00   0.00000000000000E+00   0.00000000000000E+00   1.43839969157173E-22   1.94302196249272E-03
      1.94302196249272E-03  -1.39908375896372E-15
      6.18700000000000E-03
      9.84532500000000E-01   9.84532500000000E-01   0.00000000000000E+00   0.00000000000000E+00   3.48749873230172E-36
     -3.48749873230172E-36   0.00000000000000E+00   7.76448861431103E-16   0.00000000000000E+00   0.00000000000000E+00
      0.00000000000000E+00   0.00000000000000E+00   7.04468458089669E-15  -4.54509839299391E-16   6.59017474159730E-15
      3.03630928367416E-15  -1.00000000000000E+00  -1.00000000000000E+00   0.00000000000000E+00   0.00000000000000E+00
     -1.03025728178974E-21  -1.94383488494155E-03  -1.94383488494155E-03  -2.41487752548201E-15   0.00000000000000E+00
      0.00000000000000E+00   0.00000000000000E+00   0.00000000000000E+00   1.43900872780822E-22   1.94383488493496E-03
      1.94383488493496E-03  -1.39788061962325E-15
      9.04310000000000E-03
      9.77392250000000E-01   9.77392250000000E-01   0.00000000000000E+00   0.00000000000000E+00   9.57830867362685E-36
     -9.57830867362685E-36   0.00000000000000E+00   7.73139697119927E-16   0.00000000000000E+00   0.00000000000000E+00
      0.00000000000000E+00   0.00000000000000E+00   7.04479301873729E-15   2.79269618142881E-15   9.83748920016610E-15
      3.03632532637638E-15  -1.00000000000000E+00  -1.00000000000000E+00   0.00000000000000E+00   0.00000000000000E+00
     -1.03034142137423E-21  -1.94489150288147E-03  -1.94489150288147E-03  -2.41314842411370E-15   0.00000000000000E+00
      0.00000000000000E+00   0.00000000000000E+00   0.00000000000000E+00   1.43980233107717E-22   1.94489150287163E-03
      1.94489150287163E-03  -1.39631659938262E-15
      1.27560300000000E-02
      9.68109925000000E-01   9.68109925000000E-01   0.00000000000000E+00   0.00000000000000E+00   2.71658483258256E-35
     -2.71658483258256E-35   0.00000000000000E+00   7.68838007898270E-16   0.00000000000000E+00   0.00000000000000E+00
      0.00000000000000E+00   0.00000000000000E+00   7.04493406347975E-15  -3.58159140499085E-15   3.46334265848891E-15
      3.03634618402689E-15  -1.00000000000000E+00  -1.00000000000000E+00   0.00000000000000E+00   0.00000000000000E+00
     -1.03045082366283E-21  -1.94626543552160E-03  -1.94626543552160E-03  -2.41090067202633E-15   0.00000000000000E+00
      0.00000000000000E+00   0.00000000000000E+00   0.00000000000000E+00   1.44082564473243E-22   1.94626543551814E-03
      1.94626543551814E-03  -1.39428351989884E-15
      1.75828390000000E-02
      9.56042902500000E-01   9.56042902500000E-01   0.00000000000000E+00   0.00000000000000E+00   7.79783796227601E-35
     -7.79783796227601E-35   0.00000000000000E+00   7.63246193755210E-16   0.00000000000000E+00   0.00000000000000E+00
      0.00000000000000E+00   0.00000000000000E+00   7.04511755247412E-15  -1.16853707633906E-14  -4.64025321091644E-15
      3.03637330351275E-15  -1.00000000000000E+00  -1.00000000000000E+00   0.00000000000000E+00   0.00000000000000E+00
     -1.03059309397983E-21  -1.94805218437847E-03  -1.94805218437847E-03  -2.40797872852423E-15   0.00000000000000E+00
      0.00000000000000E+00   0.00000000000000E+00   0.00000000000000E+00   1.44216476170270E-22   1.94805218438311E-03
      1.94805218438311E-03  -1.39164076874373E-15
      2.38576907000000E-02
      9.40355773250000E-01   9.40355773250000E-01   0.00000000000000E+00   0.00000000000000E+00   2.25178615367030E-34
     -2.25178615367030E-34   0.00000000000000E+00   7.55977495977569E-16   0.00000000000000E+00   0.00000000000000E+00
      0.00000000000000E+00   0.00000000000000E+00   7.04535635649401E-15  -3.77261830372877E-14  -3.06808266807937E-14
      3.03640856829569E-15  -1.00000000000000E+00  -1.00000000000000E+00   0.00000000000000E+00   0.00000000000000E+00
     -1.03077811424460E-21  -1.95037597881496E-03  -1.95037597881496E-03  -2.40418043464723E-15   0.00000000000000E+00
      0.00000000000000E+00   0.00000000000000E+00   0.00000000000000E+00   1.44390869693313E-22   1.95037597884565E-03
      1.95037597884565E-03  -1.38820562962604E-15
      3.20149979100000E-02
      9.19962505225000E-01   9.19962505225000E-01   0.00000000000000E+00   0.00000000000000E+00   2.29727498020288E-37
     -2.29727498020288E-37   0.00000000000000E+00   7.46529317461077E-16   0.00000000000000E+00   0.00000000000000E+00
      0.00000000000000E+00   0.00000000000000E+00   7.04566721585004E-15   2.02175363861758E-18   7.04768896948866E-15
      3.03645443058840E-15  -1.00000000000000E+00  -1.00000000000000E+00   0.00000000000000E+00   0.00000000000000E+00
     -1.03101886825910E-21  -1.95339907835689E-03  -1.95339907835689E-03  -2.39924308416248E-15   0.00000000000000E+00
      0.00000000000000E+00   0.00000000000000E+00   0.00000000000000E+00   1.44616912893956E-22   1.95339907834984E-03
      1.95339907834984E-03  -1.38374066388699E-15
      4.24563511388000E-02
      8.93859122153000E-01   8.93859122153000E-01   0.00000000000000E+00   0.00000000000000E+00   2.37345380066486E-37
     -2.37345380066486E-37   0.00000000000000E+00   7.34437415363518E-16   0.00000000000000E+00   0.00000000000000E+00
      0.00000000000000E+00   0.00000000000000E+00   7.04606523096462E-15   1.29780674079066E-19   7.04619501163870E-15
      3.03651309473971E-15  -1.00000000000000E+00  -1.00000000000000E+00   0.00000000000000E+00   0.00000000000000E+00
     -1.03132689633483E-21  -1.95726745379005E-03  -1.95726745379005E-03  -2.39292373248989E-15   0.00000000000000E+00
      0.00000000000000E+00   0.00000000000000E+00   0.00000000000000E+00   1.44906691494221E-22   1.95726745378300E-03
      1.95726745378300E-03  -1.37802677761332E-15
      5.58212832716640E-02
      8.60446791820840E-01   8.60446791820840E-01   0.00000000000000E+00   0.00000000000000E+00   2.39141850847139E-37
     -2.39141850847139E-37   0.00000000000000E+00   7.18962675410549E-16   0.00000000000000E+00   0.00000000000000E+00
      0.00000000000000E+00   0.00000000000000E+00   7.04657423944037E-15   3.88174279710594E-18   7.05045598223748E-15
      3.03658817555481E-15  -1.00000000000000E+00  -1.00000000000000E+00   0.00000000000000E+00   0.00000000000000E+00
     -1.03172030776261E-21  -1.96220806951452E-03  -1.96220806951452E-03  -2.38483572073519E-15   0.00000000000000E+00
      0.00000000000000E+00   0.00000000000000E+00   0.00000000000000E+00   1.45277681435163E-22   1.96220806950747E-03
      1.96220806950747E-03  -1.37071513023017E-15
      7.29283964017299E-02
      8.17679008995675E-01   8.17679008995675E-01   0.00000000000000E+00   0.00000000000000E+00   2.30765440103119E-37
     -2.30765440103119E-37   0.00000000000000E+00   6.99160187542739E-16   0.00000000000000E+00   0.00000000000000E+00
      0.00000000000000E+00   0.00000000000000E+00   7.04722666464789E-15   1.79865041981761E-18   7.04902531506771E-15
      3.03668423784960E-15  -1.00000000000000E+00  -1.00000000000000E+00   0.00000000000000E+00   0.00000000000000E+00
     -1.03222440119788E-21  -1.96853868717904E-03  -1.96853868717904E-03  -2.37448491708958E-15   0.00000000000000E+00
      0.00000000000000E+00   0.00000000000000E+00   0.00000000000000E+00   1.45751267971275E-22   1.96853868717199E-03
      1.96853868717199E-03  -1.36135950830276E-15
      9.48255012082143E-02
      7.62936246979464E-01   7.62936246979464E-01   0.00000000000000E+00   0.00000000000000E+00   2.36072225633976E-37
     -2.36072225633976E-37   0.00000000000000E+00   6.73821841499969E-16   0.00000000000000E+00   0.00000000000000E+00
      0.00000000000000E+00   0.00000000000000E+00   7.04806318503348E-15   3.19848516192269E-18   7.05126167019540E-15
      3.03680731257261E-15  -1.00000000000000E+00  -1.00000000000000E+00   0.00000000000000E+00   0.00000000000000E+00
     -1.03287030679124E-21  -1.97665036534782E-03  -1.97665036534782E-03  -2.36123929182562E-15   0.00000000000000E+00
      0.00000000000000E+00   0.00000000000000E+00   0.00000000000000E+00   1.46359221131321E-22   1.97665036534077E-03
      1.97665036534077E-03  -1.34938986224697E-15
      1.00000000000000E-01
      7.50000000000000E-01   7.50000000000000E-01   0.00000000000000E+00   0.00000000000000E+00   2.27146638189083E-37
     -2.27146638189083E-37   0.00000000000000E+00   6.67835628334847E-16   0.00000000000000E+00   0.00000000000000E+00
      0.00000000000000E+00   0.00000000000000E+00   7.04826100458393E-15   1.20611460763673E-18   7.04946711919157E-15
      3.03683641779023E-15  -1.00000000000000E+00  -1.00000000000000E+00   0.00000000000000E+00   0.00000000000000E+00
     -1.03302303560344E-21  -1.97856846477961E-03  -1.97856846477961E-03  -2.35810980560985E-15   0.00000000000000E+00
      0.00000000000000E+00   0.00000000000000E+00   0.00000000000000E+00   1.46502686143737E-22   1.97856846477256E-03
      1.97856846477256E-03  -1.34656224051523E-15
      1.28028294152300E-01
      6.79929264619250E-01   6.79929264619250E-01   0.00000000000000E+00   0.00000000000000E+00   1.54295074075982E-37
     -1.54295074075982E-37   0.00000000000000E+00   6.35420656128251E-16   0.00000000000000E+00   0.00000000000000E+00
      0.00000000000000E+00   0.00000000000000E+00   7.04933246488520E-15   6.45408704873584E-18   7.05578655193394E-15
      3.03699404317267E-15  -1.00000000000000E+00  -1.00000000000000E+00   0.00000000000000E+00   0.00000000000000E+00
     -1.03385068456779E-21  -1.98896273410450E-03  -1.98896273410450E-03  -2.34116231321968E-15   0.00000000000000E+00
      0.00000000000000E+00   0.00000000000000E+00   0.00000000000000E+00   1.47282970759637E-22   1.98896273409744E-03
      1.98896273409744E-03  -1.33125238608125E-15
      1.63904510667244E-01
      5.90238723331890E-01   5.90238723331890E-01   0.00000000000000E+00   0.00000000000000E+00  -4.23323077462415E-37
      4.23323077462415E-37   0.00000000000000E+00   5.93955504086563E-16   0.00000000000000E+00   0.00000000000000E+00
      0.00000000000000E+00   0.00000000000000E+00   7.05070220840407E-15   1.39143167660144E-17   7.06461652517008E-15
      3.03719581149886E-15  -1.00000000000000E+00  -1.00000000000000E+00   0.00000000000000E+00   0.00000000000000E+00
     -1.03491064957397E-21  -2.00227479904082E-03  -2.00227479904082E-03  -2.31947950295519E-15   0.00000000000000E+00
      0.00000000000000E+00   0.00000000000000E+00   0.00000000000000E+00   1.48280193211182E-22   2.00227479903376E-03
      2.00227479903376E-03  -1.31167181263022E-15
      2.00000000000000E-01
      5.00000000000000E-01   5.00000000000000E-01   0.00000000000000E+00   0.00000000000000E+00  -1.32358148043502E-36
      1.32358148043502E-36   0.00000000000000E+00   5.52268472196754E-16   0.00000000000000E+00   0.00000000000000E+00
      0.00000000000000E+00   0.00000000000000E+00   7.05207580973527E-15   1.44804142109602E-17   7.06655622394623E-15
      3.03739911517403E-15  -1.00000000000000E+00  -1.00000000000000E+00   0.00000000000000E+00   0.00000000000000E+00
     -1.03597787610098E-21  -2.01567793734527E-03  -2.01567793734527E-03  -2.29767715422412E-15   0.00000000000000E+00
      0.00000000000000E+00   0.00000000000000E+00   0.00000000000000E+00   1.49285154648027E-22   2.01567793733821E-03
      2.01567793733821E-03  -1.29199043314667E-15
      2.45921557139128E-01
      3.85196107152179E-01   3.85196107152179E-01   0.00000000000000E+00   0.00000000000000E+00  -1.49935318841260E-35
      1.49935318841260E-35   0.00000000000000E+00   4.99282561807468E-16   0.00000000000000E+00   0.00000000000000E+00
      0.00000000000000E+00   0.00000000000000E+00   7.05381140538892E-15   6.89794908601825E-17   7.12279089624911E-15
      3.03765806795538E-15  -1.00000000000000E+00  -1.00000000000000E+00   0.00000000000000E+00   0.00000000000000E+00
     -1.03733595950353E-21  -2.03273419158513E-03  -2.03273419158513E-03  -2.26996037442800E-15   0.00000000000000E+00
      0.00000000000000E+00   0.00000000000000E+00   0.00000000000000E+00   1.50564575797601E-22   2.03273419157801E-03
      2.03273419157801E-03  -1.26698025533484E-15
      3.00000000000000E-01
      2.50000000000000E-01   2.50000000000000E-01   0.00000000000000E+00   0.00000000000000E+00  -1.37889134983916E-34
      1.37889134983916E-34   0.00000000000000E+00   4.36962864690397E-16   0.00000000000000E+00   0.00000000000000E+00
      0.00000000000000E+00   0.00000000000000E+00   7.05583120403327E-15   2.69803495673742E-16   7.32563469970701E-15
      3.03796386042708E-15  -1.00000000000000E+00  -1.00000000000000E+00   0.00000000000000E+00   0.00000000000000E+00
     -1.03893533430684E-21  -2.05282117728004E-03  -2.05282117728004E-03  -2.23735467446580E-15   0.00000000000000E+00
      0.00000000000000E+00   0.00000000000000E+00   0.00000000000000E+00   1.52070678281661E-22   2.05282117727272E-03
      2.05282117727272E-03  -1.23757205065167E-15
      3.58779593138084E-01
      1.03051017154789E-01   1.03051017154789E-01   0.00000000000000E+00   0.00000000000000E+00   2.24165474255087E-37
     -2.24165474255087E-37   0.00000000000000E+00   3.69332318119913E-16   0.00000000000000E+00   0.00000000000000E+00
      0.00000000000000E+00   0.00000000000000E+00   7.05798992243339E-15  -1.66930705332188E-19   7.05782299172806E-15
      3.03829708559901E-15  -1.00000000000000E+00  -1.00000000000000E+00   0.00000000000000E+00   0.00000000000000E+00
     -1.04067212912399E-21  -2.07463437728350E-03  -2.07463437728350E-03  -2.20196258929430E-15   0.00000000000000E+00
      0.00000000000000E+00   0.00000000000000E+00   0.00000000000000E+00   1.53707001398573E-22   2.07463437727644E-03
      2.07463437727644E-03  -1.20566681442464E-15
      4.00000000000000E-01
      0.00000000000000E+00   0.00000000000000E+00   0.00000000000000E+00   0.00000000000000E+00  -1.34834163758728E-34
      1.34834163758728E-34   0.00000000000000E+00   3.21978934635556E-16   0.00000000000000E+00   0.00000000000000E+00
      0.00000000000000E+00   0.00000000000000E+00   7.05947822038858E-15   8.93098370126321E-17   7.14878805740121E-15
      3.03853113014496E-15  -1.00000000000000E+00  -1.00000000000000E+00   0.00000000000000E+00   0.00000000000000E+00
     -1.04188809557270E-21  -2.08990641070048E-03  -2.08990641070048E-03  -2.17717829911957E-15   0.00000000000000E+00
      0.00000000000000E+00   0.00000000000000E+00   0.00000000000000E+00   1.54853608421210E-22   2.08990641069333E-03
      2.08990641069333E-03  -1.18333176566093E-15
      4.74062287353986E-01
     -1.85155718384966E-01  -1.85155718384966E-01   0.00000000000000E+00   0.00000000000000E+00   2.37354012338661E-37
     -2.37354012338661E-37   0.00000000000000E+00   2.37070368416436E-16   0.00000000000000E+00   0.00000000000000E+00
      0.00000000000000E+00   0.00000000000000E+00   7.06209804003935E-15  -1.14252966702510E-18   7.06095551037232E-15
      3.03895077984627E-15  -1.00000000000000E+00  -1.00000000000000E+00   0.00000000000000E+00   0.00000000000000E+00
     -1.04406393586614E-21  -2.11723400542429E-03  -2.11723400542429E-03  -2.13273418424984E-15   0.00000000000000E+00
      0.00000000000000E+00   0.00000000000000E+00   0.00000000000000E+00   1.56904318110660E-22   2.11723400541723E-03
      2.11723400541723E-03  -1.14328696401286E-15
      5.00000000000000E-01
     -2.50000000000000E-01  -2.50000000000000E-01   0.00000000000000E+00   0.00000000000000E+00  -5.25940059965581E-35
      5.25940059965581E-35   0.00000000000000E+00   2.07391989290777E-16   0.00000000000000E+00   0.00000000000000E+00
      0.00000000000000E+00   0.00000000000000E+00   7.06300094649878E-15   9.30905289442698E-18   7.07230999939320E-15
      3.03909842284929E-15  -1.00000000000000E+00  -1.00000000000000E+00   0.00000000000000E+00   0.00000000000000E+00
     -1.04482363762734E-21  -2.12677553162139E-03  -2.12677553162139E-03  -2.11719741123758E-15   0.00000000000000E+00
      0.00000000000000E+00   0.00000000000000E+00   0.00000000000000E+00   1.57620668705142E-22   2.12677553161432E-03
      2.12677553161432E-03  -1.12929300090249E-15
      5.93318482066023E-01
     -4.83296205165057E-01  -4.83296205165057E-01   0.00000000000000E+00   0.00000000000000E+00   9.85086164300930E-37
     -9.85086164300930E-37   0.00000000000000E+00   1.00898243515437E-16   0.00000000000000E+00   0.00000000000000E+00
      0.00000000000000E+00   0.00000000000000E+00   7.06620243515681E-15   1.66726436505407E-18   7.06786969952187E-15
      3.03963206962431E-15  -1.00000000000000E+00  -1.00000000000000E+00   0.00000000000000E+00   0.00000000000000E+00
     -1.04754651605508E-21  -2.16097377549559E-03  -2.16097377549559E-03  -2.06144049618547E-15   0.00000000000000E+00
      0.00000000000000E+00   0.00000000000000E+00   0.00000000000000E+00   1.60188609129647E-22   2.16097377548852E-03
      2.16097377548852E-03  -1.07908981695426E-15
      6.00000000000000E-01
     -5.00000000000000E-01  -5.00000000000000E-01   0.00000000000000E+00   0.00000000000000E+00  -3.46027548009778E-37
      3.46027548009778E-37   0.00000000000000E+00   9.32917711094679E-17   0.00000000000000E+00   0.00000000000000E+00
      0.00000000000000E+00   0.00000000000000E+00   7.06642938863711E-15  -3.57325870085357E-19   7.06607206276702E-15
      3.03967045975914E-15  -1.00000000000000E+00  -1.00000000000000E+00   0.00000000000000E+00   0.00000000000000E+00
     -1.04774076901714E-21  -2.16341349834819E-03  -2.16341349834819E-03  -2.05745766943796E-15   0.00000000000000E+00
      0.00000000000000E+00   0.00000000000000E+00   0.00000000000000E+00   1.60372775055088E-22   2.16341349834113E-03
      2.16341349834113E-03  -1.07550456143064E-15
      7.00000000000000E-01
     -7.50000000000000E-01  -7.50000000000000E-01   0.00000000000000E+00   0.00000000000000E+00   7.25535397030620E-34
     -7.25535397030620E-34   0.00000000000000E+00  -2.02228638495991E-17   0.00000000000000E+00   0.00000000000000E+00
      0.00000000000000E+00   0.00000000000000E+00   7.06980094911897E-15   2.43939465989371E-18   7.07224034377887E-15
      3.04024757945591E-15  -1.00000000000000E+00  -1.00000000000000E+00   0.00000000000000E+00   0.00000000000000E+00
     -1.05063364387768E-21  -2.19974648483726E-03  -2.19974648483726E-03  -1.99801683219661E-15   0.00000000000000E+00
      0.00000000000000E+00   0.00000000000000E+00   0.00000000000000E+00   1.63102912528910E-22   2.19974648483019E-03
      2.19974648483019E-03  -1.02200788340971E-15
      8.00000000000000E-01
     -1.00000000000000E+00  -1.00000000000000E+00   0.00000000000000E+00   0.00000000000000E+00   1.73369213626378E-33
     -1.73369213626378E-33   0.00000000000000E+00  -1.33055393437152E-16   0.00000000000000E+00   0.00000000000000E+00
      0.00000000000000E+00   0.00000000000000E+00   7.07314416748641E-15   2.15946887601275E-20   7.07316576217517E-15
      3.04083033644771E-15  -1.00000000000000E+00  -1.00000000000000E+00   0.00000000000000E+00   0.00000000000000E+00
     -1.05349477899852E-21  -2.23567985939595E-03  -2.23567985939595E-03  -1.93893223281275E-15   0.00000000000000E+00
      0.00000000000000E+00   0.00000000000000E+00   0.00000000000000E+00   1.65804897372553E-22   2.23567985938888E-03
      2.23567985938888E-03  -9.68842710197812E-16
      9.00000000000000E-01
     -1.25000000000000E+00  -1.25000000000000E+00   0.00000000000000E+00   0.00000000000000E+00   3.84450435983362E-33
     -3.84450435983362E-33   0.00000000000000E+00  -2.45123327832426E-16   0.00000000000000E+00   0.00000000000000E+00
      0.00000000000000E+00   0.00000000000000E+00   7.07647922751442E-15  -1.89007901613509E-18   7.07458914849828E-15
      3.04141926506617E-15  -1.00000000000000E+00  -1.00000000000000E+00   0.00000000000000E+00   0.00000000000000E+00
     -1.05631810608930E-21  -2.27113699054276E-03  -2.27113699054276E-03  -1.88025520795474E-15   0.00000000000000E+00
      0.00000000000000E+00   0.00000000000000E+00   0.00000000000000E+00   1.68472008278064E-22   2.27113699053569E-03
      2.27113699053569E-03  -9.16040729279003E-16
      1.00000000000000E+00
     -1.50000000000000E+00  -1.50000000000000E+00   0.00000000000000E+00   0.00000000000000E+00   9.42454091052529E-33
     -9.42454091052529E-33   0.00000000000000E+00  -3.56366319639027E-16   0.00000000000000E+00   0.00000000000000E+00
      0.00000000000000E+00   0.00000000000000E+00   7.07982303996748E-15  -1.01895877614500E-18   7.07880408119133E-15
      3.04201448228741E-15  -1.00000000000000E+00  -1.00000000000000E+00   0.00000000000000E+00   0.00000000000000E+00
     -1.05909946248680E-21  -2.30606524663382E-03  -2.30606524663382E-03  -1.82202535399385E-15   0.00000000000000E+00
      0.00000000000000E+00   0.00000000000000E+00   0.00000000000000E+00   1.71100122601210E-22   2.30606524662675E-03
      2.30606524662675E-03  -8.63622808654538E-16
}
