DF-ISE text

Info {
  version   = 1.0
  type      = xyplot
  datasets  = [
    "time"
    "gate OuterVoltage" "gate InnerVoltage" "gate QuasiFermiPotential" "gate DisplacementCurrent" "gate eCurrent"
    "gate hCurrent" "gate TotalCurrent" "gate Charge" "substrate OuterVoltage" "substrate InnerVoltage"
    "substrate QuasiFermiPotential" "substrate DisplacementCurrent" "substrate eCurrent" "substrate hCurrent" "substrate TotalCurrent"
    "substrate Charge" "drain OuterVoltage" "drain InnerVoltage" "drain QuasiFermiPotential" "drain DisplacementCurrent"
    "drain eCurrent" "drain hCurrent" "drain TotalCurrent" "drain Charge" "source OuterVoltage"
    "source InnerVoltage" "source QuasiFermiPotential" "source DisplacementCurrent" "source eCurrent" "source hCurrent"
    "source TotalCurrent" "source Charge" ]
  functions = [
    Time
    OuterVoltage InnerVoltage QuasiFermiPotential DisplacementCurrent eCurrent
    hCurrent TotalCurrent Charge OuterVoltage InnerVoltage
    QuasiFermiPotential DisplacementCurrent eCurrent hCurrent TotalCurrent
    Charge OuterVoltage InnerVoltage QuasiFermiPotential DisplacementCurrent
    eCurrent hCurrent TotalCurrent Charge OuterVoltage
    InnerVoltage QuasiFermiPotential DisplacementCurrent eCurrent hCurrent
    TotalCurrent Charge ]
}

Data {
      0.00000000000000E+00
      1.00000000000000E+00   1.00000000000000E+00   0.00000000000000E+00   0.00000000000000E+00   2.39778906610746E-37
     -2.39778906610746E-37   0.00000000000000E+00   7.30068476078906E-16   0.00000000000000E+00   0.00000000000000E+00
      0.00000000000000E+00   0.00000000000000E+00   8.30730954168186E-13   3.62232193215346E-19   8.30731316400379E-13
      5.52753623708792E-15  -1.00000000000000E+00  -1.00000000000000E+00   0.00000000000000E+00   0.00000000000000E+00
     -8.94877468319581E-22  -6.41682780110677E-04  -6.41682780110677E-04  -3.92155972567893E-15   0.00000000000000E+00
      0.00000000000000E+00   0.00000000000000E+00   0.00000000000000E+00   9.12740494408833E-23   6.41682779279947E-04
      6.41682779279947E-04  -2.33604498748790E-15
      1.00000000000000E-03
      9.97500000000000E-01   9.97500000000000E-01   0.00000000000000E+00   0.00000000000000E+00   3.20311083749999E-35
     -3.20311083749999E-35   0.00000000000000E+00   7.28858992535699E-16   0.00000000000000E+00   0.00000000000000E+00
      0.00000000000000E+00   0.00000000000000E+00   8.30752706419212E-13  -8.23995690407081E-14   7.48353137378504E-13
      5.52757718808518E-15  -1.00000000000000E+00  -1.00000000000000E+00   0.00000000000000E+00   0.00000000000000E+00
     -8.91783999272568E-22  -6.42166506043562E-04  -6.42166506043562E-04  -3.92092429165429E-15   0.00000000000000E+00
      0.00000000000000E+00   0.00000000000000E+00   0.00000000000000E+00   9.17879824104583E-23   6.42166505295208E-04
      6.42166505295208E-04  -2.33551188896659E-15
      2.30000000000000E-03
      9.94250000000000E-01   9.94250000000000E-01   0.00000000000000E+00   0.00000000000000E+00   6.82915742638501E-37
     -6.82915742638501E-37   0.00000000000000E+00   7.27286678526030E-16   0.00000000000000E+00   0.00000000000000E+00
      0.00000000000000E+00   0.00000000000000E+00   8.30780992902314E-13   7.75066861027705E-17   8.30858499588417E-13
      5.52763047326497E-15  -1.00000000000000E+00  -1.00000000000000E+00   0.00000000000000E+00   0.00000000000000E+00
     -8.95004645360377E-22  -6.42795965428559E-04  -6.42795965428559E-04  -3.92009821675551E-15   0.00000000000000E+00
      0.00000000000000E+00   0.00000000000000E+00   0.00000000000000E+00   9.15541543878254E-23   6.42795964597700E-04
      6.42795964597700E-04  -2.33481893503549E-15
      3.99000000000000E-03
      9.90025000000000E-01   9.90025000000000E-01   0.00000000000000E+00   0.00000000000000E+00   1.42041735006907E-36
     -1.42041735006907E-36   0.00000000000000E+00   7.25242784219848E-16   0.00000000000000E+00   0.00000000000000E+00
      0.00000000000000E+00   0.00000000000000E+00   8.30817874022911E-13   3.13277730611548E-17   8.30849201795972E-13
      5.52769985779019E-15  -1.00000000000000E+00  -1.00000000000000E+00   0.00000000000000E+00   0.00000000000000E+00
     -8.95107321172638E-22  -6.43614411503450E-04  -6.43614411503450E-04  -3.91902427912030E-15   0.00000000000000E+00
      0.00000000000000E+00   0.00000000000000E+00   0.00000000000000E+00   9.75735366218288E-23   6.43614410672601E-04
      6.43614410672601E-04  -2.33391836288973E-15
      6.18700000000000E-03
      9.84532500000000E-01   9.84532500000000E-01   0.00000000000000E+00   0.00000000000000E+00   3.75511231276288E-36
     -3.75511231276288E-36   0.00000000000000E+00   7.22585804759894E-16   0.00000000000000E+00   0.00000000000000E+00
      0.00000000000000E+00   0.00000000000000E+00   8.30865670957360E-13   1.37162414353166E-12   2.20248981448902E-12
      5.52778984712449E-15  -1.00000000000000E+00  -1.00000000000000E+00   0.00000000000000E+00   0.00000000000000E+00
     -8.94070812824028E-22  -6.44675768459094E-04  -6.44675768459094E-04  -3.91762859822335E-15   0.00000000000000E+00
      0.00000000000000E+00   0.00000000000000E+00   0.00000000000000E+00   9.59131662680373E-23   6.44675766256605E-04
      6.44675766256605E-04  -2.33274705366104E-15
      9.04310000000000E-03
      9.77392250000000E-01   9.77392250000000E-01   0.00000000000000E+00   0.00000000000000E+00   1.05737747080707E-35
     -1.05737747080707E-35   0.00000000000000E+00   7.19131789356185E-16   0.00000000000000E+00   0.00000000000000E+00
      0.00000000000000E+00   0.00000000000000E+00   8.30927717650129E-13   3.16957067807241E-13   1.14788478545737E-12
      5.52790677301798E-15  -1.00000000000000E+00  -1.00000000000000E+00   0.00000000000000E+00   0.00000000000000E+00
     -8.94120918096859E-22  -6.46055607823675E-04  -6.46055607823675E-04  -3.91581435340812E-15   0.00000000000000E+00
      0.00000000000000E+00   0.00000000000000E+00   0.00000000000000E+00   9.28380701024667E-23   6.46055606675791E-04
      6.46055606675791E-04  -2.33122420896604E-15
      1.27560300000000E-02
      9.68109925000000E-01   9.68109925000000E-01   0.00000000000000E+00   0.00000000000000E+00   3.02229778944372E-35
     -3.02229778944372E-35   0.00000000000000E+00   7.14641625710402E-16   0.00000000000000E+00   0.00000000000000E+00
      0.00000000000000E+00   0.00000000000000E+00   8.31008429443194E-13  -4.45004441606986E-14   7.86507985282495E-13
      5.52805895194161E-15  -1.00000000000000E+00  -1.00000000000000E+00   0.00000000000000E+00   0.00000000000000E+00
     -8.93326392641171E-22  -6.47853767386936E-04  -6.47853767386936E-04  -3.91345545035749E-15   0.00000000000000E+00
      0.00000000000000E+00   0.00000000000000E+00   0.00000000000000E+00   9.67746094761859E-23   6.47853766600428E-04
      6.47853766600428E-04  -2.32924512729453E-15
      1.75828390000000E-02
      9.56042902500000E-01   9.56042902500000E-01   0.00000000000000E+00   0.00000000000000E+00   2.41002677013927E-37
     -2.41002677013927E-37   0.00000000000000E+00   7.08804101063313E-16   0.00000000000000E+00   0.00000000000000E+00
      0.00000000000000E+00   0.00000000000000E+00   8.31112862464162E-13   5.70494352798056E-20   8.31112919513597E-13
      5.52825841406248E-15  -1.00000000000000E+00  -1.00000000000000E+00   0.00000000000000E+00   0.00000000000000E+00
     -8.96176528515171E-22  -6.50189115134440E-04  -6.50189115134440E-04  -3.91038968193062E-15   0.00000000000000E+00
      0.00000000000000E+00   0.00000000000000E+00   0.00000000000000E+00   9.25201637884208E-23   6.50189114303327E-04
      6.50189114303327E-04  -2.32667283319519E-15
      2.37611545200000E-02
      9.40597113700000E-01   9.40597113700000E-01   0.00000000000000E+00   0.00000000000000E+00   2.48719150956566E-37
     -2.48719150956566E-37   0.00000000000000E+00   7.01332149550347E-16   0.00000000000000E+00   0.00000000000000E+00
      0.00000000000000E+00   0.00000000000000E+00   8.31246508599820E-13   1.43071227531514E-18   8.31247939312096E-13
      5.52851424958121E-15  -1.00000000000000E+00  -1.00000000000000E+00   0.00000000000000E+00   0.00000000000000E+00
     -8.96633027575653E-22  -6.53178674174625E-04  -6.53178674174625E-04  -3.90646437010692E-15   0.00000000000000E+00
      0.00000000000000E+00   0.00000000000000E+00   0.00000000000000E+00   9.29374047309810E-23   6.53178673343378E-04
      6.53178673343378E-04  -2.32338202902463E-15
      3.16693983856000E-02
      9.20826504036000E-01   9.20826504036000E-01   0.00000000000000E+00   0.00000000000000E+00   2.43788205162580E-37
     -2.43788205162580E-37   0.00000000000000E+00   6.91768760570911E-16   0.00000000000000E+00   0.00000000000000E+00
      0.00000000000000E+00   0.00000000000000E+00   8.31416999285351E-13   1.68975500812672E-18   8.31418689040359E-13
      5.52884097940320E-15  -1.00000000000000E+00  -1.00000000000000E+00   0.00000000000000E+00   0.00000000000000E+00
     -8.97216429350690E-22  -6.56999255426907E-04  -6.56999255426907E-04  -3.90144033797634E-15   0.00000000000000E+00
      0.00000000000000E+00   0.00000000000000E+00   0.00000000000000E+00   9.34902988316745E-23   6.56999254595489E-04
      6.56999254595489E-04  -2.31916940199777E-15
      4.17919505335680E-02
      8.95520123666080E-01   8.95520123666080E-01   0.00000000000000E+00   0.00000000000000E+00   2.38290188918019E-37
     -2.38290188918019E-37   0.00000000000000E+00   6.79528887273579E-16   0.00000000000000E+00   0.00000000000000E+00
      0.00000000000000E+00   0.00000000000000E+00   8.31635503791141E-13   1.44100393363053E-18   8.31636944795074E-13
      5.52925955868907E-15  -1.00000000000000E+00  -1.00000000000000E+00   0.00000000000000E+00   0.00000000000000E+00
     -8.97963664455611E-22  -6.61891851299451E-04  -6.61891851299451E-04  -3.89500801114918E-15   0.00000000000000E+00
      0.00000000000000E+00   0.00000000000000E+00   0.00000000000000E+00   9.41792492418608E-23   6.61891850467815E-04
      6.61891850467815E-04  -2.31378043481347E-15
      5.47488172829670E-02
      8.63127956792582E-01   8.63127956792582E-01   0.00000000000000E+00   0.00000000000000E+00   2.43583854717973E-37
     -2.43583854717973E-37   0.00000000000000E+00   6.63863422129438E-16   0.00000000000000E+00   0.00000000000000E+00
      0.00000000000000E+00   0.00000000000000E+00   8.31915674937875E-13   4.65480855202765E-18   8.31920329746427E-13
      5.52979578207225E-15  -1.00000000000000E+00  -1.00000000000000E+00   0.00000000000000E+00   0.00000000000000E+00
     -8.98921408301428E-22  -6.68164097934766E-04  -6.68164097934766E-04  -3.88676959840018E-15   0.00000000000000E+00
      0.00000000000000E+00   0.00000000000000E+00   0.00000000000000E+00   9.50777983320726E-23   6.68164097102847E-04
      6.68164097102847E-04  -2.30688960580152E-15
      7.13336067221978E-02
      8.21665983194505E-01   8.21665983194505E-01   0.00000000000000E+00   0.00000000000000E+00   2.54492658149970E-37
     -2.54492658149970E-37   0.00000000000000E+00   6.43813125166490E-16   0.00000000000000E+00   0.00000000000000E+00
      0.00000000000000E+00   0.00000000000000E+00   8.32272519493400E-13   4.67491365586603E-17   8.32319268629959E-13
      5.53048623592106E-15  -1.00000000000000E+00  -1.00000000000000E+00   0.00000000000000E+00   0.00000000000000E+00
     -9.00146851894823E-22  -6.76202341837067E-04  -6.76202341837067E-04  -3.87622508214839E-15   0.00000000000000E+00
      0.00000000000000E+00   0.00000000000000E+00   0.00000000000000E+00   9.62295626932430E-23   6.76202341004749E-04
      6.76202341004749E-04  -2.29807427893917E-15
      9.25621372044132E-02
      7.68594656988967E-01   7.68594656988967E-01   0.00000000000000E+00   0.00000000000000E+00   2.43443506796689E-37
     -2.43443506796689E-37   0.00000000000000E+00   6.18151662966452E-16   0.00000000000000E+00   0.00000000000000E+00
      0.00000000000000E+00   0.00000000000000E+00   8.32727031931903E-13   1.93067878404363E-16   8.32920099810307E-13
      5.53137705748765E-15  -1.00000000000000E+00  -1.00000000000000E+00   0.00000000000000E+00   0.00000000000000E+00
     -9.01709961795429E-22  -6.86533916749698E-04  -6.86533916749698E-04  -3.86272564774336E-15   0.00000000000000E+00
      0.00000000000000E+00   0.00000000000000E+00   0.00000000000000E+00   9.77019977391582E-23   6.86533915916779E-04
      6.86533915916779E-04  -2.28680307271074E-15
      1.00000000000000E-01
      7.50000000000000E-01   7.50000000000000E-01   0.00000000000000E+00   0.00000000000000E+00   2.41049992211655E-37
     -2.41049992211655E-37   0.00000000000000E+00   6.09161358263845E-16   0.00000000000000E+00   0.00000000000000E+00
      0.00000000000000E+00   0.00000000000000E+00   8.32885631176342E-13   1.10804191135728E-18   8.32886739218253E-13
      5.53168963178135E-15  -1.00000000000000E+00  -1.00000000000000E+00   0.00000000000000E+00   0.00000000000000E+00
     -9.02281102092335E-22  -6.90164250800244E-04  -6.90164250800244E-04  -3.85799390632065E-15   0.00000000000000E+00
      0.00000000000000E+00   0.00000000000000E+00   0.00000000000000E+00   9.82184158225062E-23   6.90164249967358E-04
      6.90164249967358E-04  -2.28285708372454E-15
      1.27172519017236E-01
      6.82068702456911E-01   6.82068702456911E-01   0.00000000000000E+00   0.00000000000000E+00   2.47590023867009E-37
     -2.47590023867009E-37   0.00000000000000E+00   5.76315846451294E-16   0.00000000000000E+00   0.00000000000000E+00
      0.00000000000000E+00   0.00000000000000E+00   8.33458573413197E-13   4.79675845843162E-16   8.33938249259040E-13
      5.53282929183520E-15  -1.00000000000000E+00  -1.00000000000000E+00   0.00000000000000E+00   0.00000000000000E+00
     -9.04266927343742E-22  -7.03415105512411E-04  -7.03415105512411E-04  -3.84069077313794E-15   0.00000000000000E+00
      0.00000000000000E+00   0.00000000000000E+00   0.00000000000000E+00   1.00129579895440E-22   7.03415104678475E-04
      7.03415104678475E-04  -2.26845436514854E-15
      1.61953343359297E-01
      5.95116641601756E-01   5.95116641601756E-01   0.00000000000000E+00   0.00000000000000E+00   1.33525526792610E-38
     -1.33525526792610E-38   0.00000000000000E+00   5.34283710580536E-16   0.00000000000000E+00   0.00000000000000E+00
      0.00000000000000E+00   0.00000000000000E+00   8.34185293477265E-13   1.33857583244663E-14   8.47571051801732E-13
      5.53429065578527E-15  -1.00000000000000E+00  -1.00000000000000E+00   0.00000000000000E+00   0.00000000000000E+00
     -9.05102886481468E-22  -7.20357979086126E-04  -7.20357979086126E-04  -3.81852262310369E-15   0.00000000000000E+00
      0.00000000000000E+00   0.00000000000000E+00   0.00000000000000E+00   1.02543298533303E-22   7.20357978238557E-04
      7.20357978238557E-04  -2.25005174326211E-15
      2.00000000000000E-01
      5.00000000000000E-01   5.00000000000000E-01   0.00000000000000E+00   0.00000000000000E+00  -2.25480901998231E-36
      2.25480901998231E-36   0.00000000000000E+00   4.88325238601742E-16   0.00000000000000E+00   0.00000000000000E+00
      0.00000000000000E+00   0.00000000000000E+00   8.34971078000145E-13   2.42336915853779E-14   8.59204769585523E-13
      5.53589561555989E-15  -1.00000000000000E+00  -1.00000000000000E+00   0.00000000000000E+00   0.00000000000000E+00
     -9.03454169733392E-22  -7.38958358373015E-04  -7.38958358373015E-04  -3.79425988814161E-15   0.00000000000000E+00
      0.00000000000000E+00   0.00000000000000E+00   0.00000000000000E+00   1.05203936264910E-22   7.38958357513812E-04
      7.38958357513812E-04  -2.22996096602001E-15
      2.44519455157839E-01
      3.88701362105403E-01   3.88701362105403E-01   0.00000000000000E+00   0.00000000000000E+00  -2.13215824037367E-35
      2.13215824037367E-35   0.00000000000000E+00   4.34583332718682E-16   0.00000000000000E+00   0.00000000000000E+00
      0.00000000000000E+00   0.00000000000000E+00   8.35882310604139E-13   6.44731390239520E-14   9.00355449628091E-13
      5.53779032009546E-15  -1.00000000000000E+00  -1.00000000000000E+00   0.00000000000000E+00   0.00000000000000E+00
     -8.92223640713061E-22  -7.60767921200687E-04  -7.60767921200687E-04  -3.76586199131337E-15   0.00000000000000E+00
      0.00000000000000E+00   0.00000000000000E+00   0.00000000000000E+00   1.08319531719469E-22   7.60767920300332E-04
      7.60767920300332E-04  -2.20651166150077E-15
      3.00000000000000E-01
      2.50000000000000E-01   2.50000000000000E-01   0.00000000000000E+00   0.00000000000000E+00   2.43618551242623E-37
     -2.43618551242623E-37   0.00000000000000E+00   3.67662841902696E-16   0.00000000000000E+00   0.00000000000000E+00
      0.00000000000000E+00   0.00000000000000E+00   8.36997621390404E-13   7.07655495288951E-19   8.36998329045899E-13
      5.54014792947223E-15  -1.00000000000000E+00  -1.00000000000000E+00   0.00000000000000E+00   0.00000000000000E+00
     -9.17216573276749E-22  -7.87953166437254E-04  -7.87953166437254E-04  -3.73044177288749E-15   0.00000000000000E+00
      0.00000000000000E+00   0.00000000000000E+00   0.00000000000000E+00   1.12197483951209E-22   7.87953165600257E-04
      7.87953165600257E-04  -2.17736899848744E-15
      3.56984902602034E-01
      1.07537743494915E-01   1.07537743494915E-01   0.00000000000000E+00   0.00000000000000E+00   2.35867698876609E-37
     -2.35867698876609E-37   0.00000000000000E+00   2.99017047908103E-16   0.00000000000000E+00   0.00000000000000E+00
      0.00000000000000E+00   0.00000000000000E+00   8.38127600379872E-13   3.24302093012651E-19   8.38127924681966E-13
      5.54257330471083E-15  -1.00000000000000E+00  -1.00000000000000E+00   0.00000000000000E+00   0.00000000000000E+00
     -9.21472379142326E-22  -8.15808508924662E-04  -8.15808508924662E-04  -3.69405418103835E-15   0.00000000000000E+00
      0.00000000000000E+00   0.00000000000000E+00   0.00000000000000E+00   1.16197664676280E-22   8.15808508086536E-04
      8.15808508086536E-04  -2.14753617158059E-15
      4.00000000000000E-01
      0.00000000000000E+00   0.00000000000000E+00   0.00000000000000E+00   0.00000000000000E+00  -6.06981570726671E-34
      6.06981570726671E-34   0.00000000000000E+00   2.47266458726003E-16   0.00000000000000E+00   0.00000000000000E+00
      0.00000000000000E+00   0.00000000000000E+00   8.38966461957536E-13   9.16074454169661E-14   9.30573907374502E-13
      5.54440456104805E-15  -1.00000000000000E+00  -1.00000000000000E+00   0.00000000000000E+00   0.00000000000000E+00
     -9.13562816646266E-22  -8.36730552694986E-04  -8.36730552694986E-04  -3.66658989112158E-15   0.00000000000000E+00
      0.00000000000000E+00   0.00000000000000E+00   0.00000000000000E+00   1.19231571449572E-22   8.36730551764413E-04
      8.36730551764413E-04  -2.12508112865247E-15
      4.71800977278563E-01
     -1.79502443196407E-01  -1.79502443196407E-01   0.00000000000000E+00   0.00000000000000E+00   2.71589217793930E-37
     -2.71589217793930E-37   0.00000000000000E+00   1.61057774005166E-16   0.00000000000000E+00   0.00000000000000E+00
      0.00000000000000E+00   0.00000000000000E+00   8.40352504055677E-13   4.84456819547526E-19   8.40352988512496E-13
      5.54747167294654E-15  -1.00000000000000E+00  -1.00000000000000E+00   0.00000000000000E+00   0.00000000000000E+00
     -9.30000838891421E-22  -8.71628488976389E-04  -8.71628488976389E-04  -3.62078938259423E-15   0.00000000000000E+00
      0.00000000000000E+00   0.00000000000000E+00   0.00000000000000E+00   1.24192091445943E-22   8.71628488136037E-04
      8.71628488136037E-04  -2.08774006435748E-15
      5.00000000000000E-01
     -2.50000000000000E-01  -2.50000000000000E-01   0.00000000000000E+00   0.00000000000000E+00  -4.78405592648435E-34
      4.78405592648435E-34   0.00000000000000E+00   1.27266311250951E-16   0.00000000000000E+00   0.00000000000000E+00
      0.00000000000000E+00   0.00000000000000E+00   8.40889853844265E-13   1.17552150391244E-14   8.52645068883389E-13
      5.54868177303231E-15  -1.00000000000000E+00  -1.00000000000000E+00   0.00000000000000E+00   0.00000000000000E+00
     -9.31652136137085E-22  -8.85275851953622E-04  -8.85275851953622E-04  -3.60282554070419E-15   0.00000000000000E+00
      0.00000000000000E+00   0.00000000000000E+00   0.00000000000000E+00   1.26153161915255E-22   8.85275851100978E-04
      8.85275851100978E-04  -2.07312254357907E-15
      5.90469231370989E-01
     -4.76173078427472E-01  -4.76173078427472E-01   0.00000000000000E+00   0.00000000000000E+00   4.33398891012681E-36
     -4.33398891012681E-36   0.00000000000000E+00   1.91479951002733E-17   0.00000000000000E+00   0.00000000000000E+00
      0.00000000000000E+00   0.00000000000000E+00   8.42580115606819E-13   9.11621592780915E-19   8.42581027228412E-13
      5.55254313592659E-15  -1.00000000000000E+00  -1.00000000000000E+00   0.00000000000000E+00   0.00000000000000E+00
     -9.38707827887508E-22  -9.28605859333343E-04  -9.28605859333343E-04  -3.54528406184510E-15   0.00000000000000E+00
      0.00000000000000E+00   0.00000000000000E+00   0.00000000000000E+00   1.32343704600078E-22   9.28605858490763E-04
      9.28605858490763E-04  -2.02640706918177E-15
      6.00000000000000E-01
     -5.00000000000000E-01  -5.00000000000000E-01   0.00000000000000E+00   0.00000000000000E+00  -1.91973781421938E-35
      1.91973781421938E-35   0.00000000000000E+00   7.78763161585088E-18   0.00000000000000E+00   0.00000000000000E+00
      0.00000000000000E+00   0.00000000000000E+00   8.42755680694593E-13   1.28246875602822E-16   8.42883927570196E-13
      5.55294988694190E-15  -1.00000000000000E+00  -1.00000000000000E+00   0.00000000000000E+00   0.00000000000000E+00
     -9.39399924206631E-22  -9.33145372001347E-04  -9.33145372001347E-04  -3.53923409381537E-15   0.00000000000000E+00
      0.00000000000000E+00   0.00000000000000E+00   0.00000000000000E+00   1.32992132660058E-22   9.33145371158463E-04
      9.33145371158463E-04  -2.02150342474238E-15
      7.00000000000000E-01
     -7.50000000000000E-01  -7.50000000000000E-01   0.00000000000000E+00   0.00000000000000E+00   3.72875923496262E-37
     -3.72875923496262E-37   0.00000000000000E+00  -1.11015497053657E-16   0.00000000000000E+00   0.00000000000000E+00
      0.00000000000000E+00   0.00000000000000E+00   8.44562898622644E-13  -1.02385054398205E-18   8.44561874772100E-13
      5.55722154185677E-15  -1.00000000000000E+00  -1.00000000000000E+00   0.00000000000000E+00   0.00000000000000E+00
     -9.46615302928354E-22  -9.80345184980898E-04  -9.80345184980898E-04  -3.47594148374781E-15   0.00000000000000E+00
      0.00000000000000E+00   0.00000000000000E+00   0.00000000000000E+00   1.39770858661651E-22   9.80345184136335E-04
      9.80345184136335E-04  -1.97026456105531E-15
      8.00000000000000E-01
     -1.00000000000000E+00  -1.00000000000000E+00   0.00000000000000E+00   0.00000000000000E+00   2.32944221080703E-37
     -2.32944221080703E-37   0.00000000000000E+00  -2.29003128508944E-16   0.00000000000000E+00   0.00000000000000E+00
      0.00000000000000E+00   0.00000000000000E+00   8.46285646112062E-13   1.65805030917971E-18   8.46287304162371E-13
      5.56147251142850E-15  -1.00000000000000E+00  -1.00000000000000E+00   0.00000000000000E+00   0.00000000000000E+00
     -9.53684873855432E-22  -1.02658488501770E-03  -1.02658488501770E-03  -3.41303505029654E-15   0.00000000000000E+00
      0.00000000000000E+00   0.00000000000000E+00   0.00000000000000E+00   1.46418387677965E-22   1.02658488417141E-03
      1.02658488417141E-03  -1.91943433262302E-15
      9.00000000000000E-01
     -1.25000000000000E+00  -1.25000000000000E+00   0.00000000000000E+00   0.00000000000000E+00   2.71457184995821E-37
     -2.71457184995821E-37   0.00000000000000E+00  -3.46019587856796E-16   0.00000000000000E+00   0.00000000000000E+00
      0.00000000000000E+00   0.00000000000000E+00   8.47909384824580E-13  -4.90394871279023E-19   8.47908894429709E-13
      5.56570463659002E-15  -1.00000000000000E+00  -1.00000000000000E+00   0.00000000000000E+00   0.00000000000000E+00
     -9.60603821025784E-22  -1.07182590653113E-03  -1.07182590653113E-03  -3.35062980118558E-15   0.00000000000000E+00
      0.00000000000000E+00   0.00000000000000E+00   0.00000000000000E+00   1.52920023532145E-22   1.07182590568322E-03
      1.07182590568322E-03  -1.86905524754764E-15
      1.00000000000000E+00
     -1.50000000000000E+00  -1.50000000000000E+00   0.00000000000000E+00   0.00000000000000E+00   5.38818243693833E-37
     -5.38818243693833E-37   0.00000000000000E+00  -4.61928758480717E-16   0.00000000000000E+00   0.00000000000000E+00
      0.00000000000000E+00   0.00000000000000E+00   8.49426171830993E-13   1.72696228994506E-19   8.49426344527222E-13
      5.56991170419503E-15  -1.00000000000000E+00  -1.00000000000000E+00   0.00000000000000E+00   0.00000000000000E+00
     -9.67350986184316E-22  -1.11593406481109E-03  -1.11593406481109E-03  -3.28882552031325E-15   0.00000000000000E+00
      0.00000000000000E+00   0.00000000000000E+00   0.00000000000000E+00   1.59243997214669E-22   1.11593406396167E-03
      1.11593406396167E-03  -1.81915742540107E-15
}
