DF-ISE text

Info {
  version   = 1.0
  type      = xyplot
  datasets  = [
    "time"
    "gate OuterVoltage" "gate InnerVoltage" "gate QuasiFermiPotential" "gate DisplacementCurrent" "gate eCurrent"
    "gate hCurrent" "gate TotalCurrent" "gate Charge" "substrate OuterVoltage" "substrate InnerVoltage"
    "substrate QuasiFermiPotential" "substrate DisplacementCurrent" "substrate eCurrent" "substrate hCurrent" "substrate TotalCurrent"
    "substrate Charge" "drain OuterVoltage" "drain InnerVoltage" "drain QuasiFermiPotential" "drain DisplacementCurrent"
    "drain eCurrent" "drain hCurrent" "drain TotalCurrent" "drain Charge" "source OuterVoltage"
    "source InnerVoltage" "source QuasiFermiPotential" "source DisplacementCurrent" "source eCurrent" "source hCurrent"
    "source TotalCurrent" "source Charge" ]
  functions = [
    Time
    OuterVoltage InnerVoltage QuasiFermiPotential DisplacementCurrent eCurrent
    hCurrent TotalCurrent Charge OuterVoltage InnerVoltage
    QuasiFermiPotential DisplacementCurrent eCurrent hCurrent TotalCurrent
    Charge OuterVoltage InnerVoltage QuasiFermiPotential DisplacementCurrent
    eCurrent hCurrent TotalCurrent Charge OuterVoltage
    InnerVoltage QuasiFermiPotential DisplacementCurrent eCurrent hCurrent
    TotalCurrent Charge ]
}

Data {
      0.00000000000000E+00
     -1.00000000000000E+00  -1.00000000000000E+00   0.00000000000000E+00   0.00000000000000E+00   1.63793632008278E-36
     -1.63793632008278E-36   0.00000000000000E+00  -6.13820362366346E-16   0.00000000000000E+00   0.00000000000000E+00
      0.00000000000000E+00   0.00000000000000E+00  -5.14240640508853E-18  -5.34458424088464E-15  -5.34972664728973E-15
     -3.40472248718979E-15   1.00000000000000E+00   1.00000000000000E+00   0.00000000000000E+00   0.00000000000000E+00
      1.78423104169104E-04   7.57714185023303E-21   1.78423104169104E-04   2.60126202555565E-15   0.00000000000000E+00
      0.00000000000000E+00   0.00000000000000E+00   0.00000000000000E+00  -1.78423104163755E-04  -1.40157066079188E-24
     -1.78423104163755E-04   1.41728082400048E-15
      1.00000000000000E-03
     -9.97500000000000E-01  -9.97500000000000E-01   0.00000000000000E+00   0.00000000000000E+00   6.84680896971136E-35
     -6.84680896971136E-35   0.00000000000000E+00  -6.12873726010310E-16   0.00000000000000E+00   0.00000000000000E+00
      0.00000000000000E+00   0.00000000000000E+00   1.35278378451417E-12  -5.34463234830612E-15   1.34743915216587E-12
     -3.40479343704748E-15   1.00000000000000E+00   1.00000000000000E+00   0.00000000000000E+00   0.00000000000000E+00
      1.78905236582793E-04   7.57719999464194E-21   1.78905236582793E-04   2.60082066439578E-15   0.00000000000000E+00
      0.00000000000000E+00   0.00000000000000E+00   0.00000000000000E+00  -1.78905237930232E-04  -2.40112132205469E-24
     -1.78905237930232E-04   1.41684649866202E-15
      2.30000000000000E-03
     -9.94250000000000E-01  -9.94250000000000E-01   0.00000000000000E+00   0.00000000000000E+00   2.54924281783183E-36
     -2.54924281783183E-36   0.00000000000000E+00  -6.11643103545307E-16   0.00000000000000E+00   0.00000000000000E+00
      0.00000000000000E+00   0.00000000000000E+00   1.96972962122482E-14  -5.34469496180507E-15   1.43526012504431E-14
     -3.40488578128992E-15   1.00000000000000E+00   1.00000000000000E+00   0.00000000000000E+00   0.00000000000000E+00
      1.79532906207638E-04   7.57727584695568E-21   1.79532906207638E-04   2.60024694133343E-15   0.00000000000000E+00
      0.00000000000000E+00   0.00000000000000E+00   0.00000000000000E+00  -1.79532906221990E-04  -1.39612681436949E-24
     -1.79532906221990E-04   1.41628194350180E-15
      3.99000000000000E-03
     -9.90025000000000E-01  -9.90025000000000E-01   0.00000000000000E+00   0.00000000000000E+00   4.27235648709470E-36
     -4.27235648709470E-36   0.00000000000000E+00  -6.10043302563912E-16   0.00000000000000E+00   0.00000000000000E+00
      0.00000000000000E+00   0.00000000000000E+00   5.61350001852134E-14  -5.34477647848516E-15   5.07902237067283E-14
     -3.40500601333199E-15   1.00000000000000E+00   1.00000000000000E+00   0.00000000000000E+00   0.00000000000000E+00
      1.80350386659047E-04   7.57737453979301E-21   1.80350386659047E-04   2.59950117973683E-15   0.00000000000000E+00
      0.00000000000000E+00   0.00000000000000E+00   0.00000000000000E+00  -1.80350386709837E-04  -1.46533942476802E-24
     -1.80350386709837E-04   1.41554813615909E-15
      6.18700000000000E-03
     -9.84532500000000E-01  -9.84532500000000E-01   0.00000000000000E+00   0.00000000000000E+00   9.19309015843090E-36
     -9.19309015843090E-36   0.00000000000000E+00  -6.07963575444972E-16   0.00000000000000E+00   0.00000000000000E+00
      0.00000000000000E+00   0.00000000000000E+00   1.59804275006777E-13  -5.34488265305339E-15   1.54459392353724E-13
     -3.40516262608624E-15   1.00000000000000E+00   1.00000000000000E+00   0.00000000000000E+00   0.00000000000000E+00
      1.81415657851784E-04   7.57750313353154E-21   1.81415657851784E-04   2.59853182195746E-15   0.00000000000000E+00
      0.00000000000000E+00   0.00000000000000E+00   0.00000000000000E+00  -1.81415658006244E-04  -1.51563048426496E-24
     -1.81415658006244E-04   1.41459437957372E-15
      9.04310000000000E-03
     -9.77392250000000E-01  -9.77392250000000E-01   0.00000000000000E+00   0.00000000000000E+00   2.34514140814058E-35
     -2.34514140814058E-35   0.00000000000000E+00  -6.05259954684857E-16   0.00000000000000E+00   0.00000000000000E+00
      0.00000000000000E+00   0.00000000000000E+00   4.54537043021382E-13  -5.34502102082283E-15   4.49192022000559E-13
     -3.40536674672172E-15   1.00000000000000E+00   1.00000000000000E+00   0.00000000000000E+00   0.00000000000000E+00
      1.82804799309140E-04   7.57767079525604E-21   1.82804799309140E-04   2.59727188002084E-15   0.00000000000000E+00
      0.00000000000000E+00   0.00000000000000E+00   0.00000000000000E+00  -1.82804799758332E-04  -1.72197140741772E-24
     -1.82804799758332E-04   1.41335482138573E-15
      1.27560300000000E-02
     -9.68109925000000E-01  -9.68109925000000E-01   0.00000000000000E+00   0.00000000000000E+00   6.47500266341825E-35
     -6.47500266341825E-35   0.00000000000000E+00  -6.01745290387048E-16   0.00000000000000E+00   0.00000000000000E+00
      0.00000000000000E+00   0.00000000000000E+00   1.29140918133089E-12  -5.34520147118301E-15   1.28606397985970E-12
     -3.40563298535877E-15   1.00000000000000E+00   1.00000000000000E+00   0.00000000000000E+00   0.00000000000000E+00
      1.84617898048674E-04   7.57788957258667E-21   1.84617898048674E-04   2.59563433169208E-15   0.00000000000000E+00
      0.00000000000000E+00   0.00000000000000E+00   0.00000000000000E+00  -1.84617899334738E-04  -2.43108320079855E-24
     -1.84617899334738E-04   1.41174394405373E-15
      1.75828390000000E-02
     -9.56042902500000E-01  -9.56042902500000E-01   0.00000000000000E+00   0.00000000000000E+00   1.62426835465000E-36
     -1.62426835465000E-36   0.00000000000000E+00  -5.97176301735343E-16   0.00000000000000E+00   0.00000000000000E+00
      0.00000000000000E+00   0.00000000000000E+00  -3.35750011934559E-18  -5.34543701763972E-15  -5.34879451775907E-15
     -3.40598057756795E-15   1.00000000000000E+00   1.00000000000000E+00   0.00000000000000E+00   0.00000000000000E+00
      1.86987049492493E-04   7.57817551507594E-21   1.86987049492493E-04   2.59350615263731E-15   0.00000000000000E+00
      0.00000000000000E+00   0.00000000000000E+00   0.00000000000000E+00  -1.86987049487145E-04  -1.45776868273841E-24
     -1.86987049487145E-04   1.40965072666599E-15
      2.37611545200000E-02
     -9.40597113700000E-01  -9.40597113700000E-01   0.00000000000000E+00   0.00000000000000E+00   1.58848473531904E-36
     -1.58848473531904E-36   0.00000000000000E+00  -5.91328125811005E-16   0.00000000000000E+00   0.00000000000000E+00
      0.00000000000000E+00   0.00000000000000E+00  -6.47094562180851E-19  -5.34574007859424E-15  -5.34638717315642E-15
     -3.40642792245234E-15   1.00000000000000E+00   1.00000000000000E+00   0.00000000000000E+00   0.00000000000000E+00
      1.90039405797659E-04   7.57854374625513E-21   1.90039405797659E-04   2.59078312465670E-15   0.00000000000000E+00
      0.00000000000000E+00   0.00000000000000E+00   0.00000000000000E+00  -1.90039405792312E-04  -1.46317724206088E-24
     -1.90039405792312E-04   1.40697292360664E-15
      3.16693983856000E-02
     -9.20826504036000E-01  -9.20826504036000E-01   0.00000000000000E+00   0.00000000000000E+00   1.62251605226265E-36
     -1.62251605226265E-36   0.00000000000000E+00  -5.83842685683209E-16   0.00000000000000E+00   0.00000000000000E+00
      0.00000000000000E+00   0.00000000000000E+00  -8.38589064920714E-18  -5.34613051846473E-15  -5.35451640911394E-15
     -3.40700446230840E-15   1.00000000000000E+00   1.00000000000000E+00   0.00000000000000E+00   0.00000000000000E+00
      1.93978610253716E-04   7.57901883175133E-21   1.93978610253716E-04   2.58729934546851E-15   0.00000000000000E+00
      0.00000000000000E+00   0.00000000000000E+00   0.00000000000000E+00  -1.93978610248361E-04  -1.52832946842551E-24
     -1.93978610248361E-04   1.40354780252311E-15
      4.17919505335680E-02
     -8.95520123666080E-01  -8.95520123666080E-01   0.00000000000000E+00   0.00000000000000E+00   1.60134795885002E-36
     -1.60134795885002E-36   0.00000000000000E+00  -5.74261718312109E-16   0.00000000000000E+00   0.00000000000000E+00
      0.00000000000000E+00   0.00000000000000E+00   2.01360694272838E-18  -5.34663433391808E-15  -5.34462072697535E-15
     -3.40774880600165E-15   1.00000000000000E+00   1.00000000000000E+00   0.00000000000000E+00   0.00000000000000E+00
      1.99072851846577E-04   7.57963300722112E-21   1.99072851846577E-04   2.58284286783913E-15   0.00000000000000E+00
      0.00000000000000E+00   0.00000000000000E+00   0.00000000000000E+00  -1.99072851841232E-04  -1.52971994527149E-24
     -1.99072851841232E-04   1.39916765647464E-15
      5.47488172829670E-02
     -8.63127956792582E-01  -8.63127956792582E-01   0.00000000000000E+00   0.00000000000000E+00   1.60236509112621E-36
     -1.60236509112621E-36   0.00000000000000E+00  -5.61998787622320E-16   0.00000000000000E+00   0.00000000000000E+00
      0.00000000000000E+00   0.00000000000000E+00  -2.74301675165445E-17  -5.34728569831187E-15  -5.37471586582842E-15
     -3.40871183441248E-15   1.00000000000000E+00   1.00000000000000E+00   0.00000000000000E+00   0.00000000000000E+00
      2.05677355030209E-04   7.58042893466407E-21   2.05677355030209E-04   2.57714305238783E-15   0.00000000000000E+00
      0.00000000000000E+00   0.00000000000000E+00   0.00000000000000E+00  -2.05677355024834E-04  -1.58092947909004E-24
     -2.05677355024834E-04   1.39356756964696E-15
      7.13336067221978E-02
     -8.21665983194505E-01  -8.21665983194505E-01   0.00000000000000E+00   0.00000000000000E+00   1.65655770192547E-36
     -1.65655770192547E-36   0.00000000000000E+00  -5.46303511118014E-16   0.00000000000000E+00   0.00000000000000E+00
      0.00000000000000E+00   0.00000000000000E+00  -1.77005880471446E-16  -5.34812969217949E-15  -5.52513557265093E-15
     -3.40996107067191E-15   1.00000000000000E+00   1.00000000000000E+00   0.00000000000000E+00   0.00000000000000E+00
      2.14265438974561E-04   7.58146339540853E-21   2.14265438974561E-04   2.56985460169882E-15   0.00000000000000E+00
      0.00000000000000E+00   0.00000000000000E+00   0.00000000000000E+00  -2.14265438969036E-04  -1.63175428290221E-24
     -2.14265438969036E-04   1.38640998009110E-15
      9.25621372044132E-02
     -7.68594656988967E-01  -7.68594656988967E-01   0.00000000000000E+00   0.00000000000000E+00   1.61724369742446E-36
     -1.61724369742446E-36   0.00000000000000E+00  -5.26215915585097E-16   0.00000000000000E+00   0.00000000000000E+00
      0.00000000000000E+00   0.00000000000000E+00  -1.15850176298166E-15  -5.34922607562168E-15  -6.50772783860334E-15
     -3.41158644429831E-15   1.00000000000000E+00   1.00000000000000E+00   0.00000000000000E+00   0.00000000000000E+00
      2.25472103246323E-04   7.58281240261943E-21   2.25472103246323E-04   2.56053715249051E-15   0.00000000000000E+00
      0.00000000000000E+00   0.00000000000000E+00   0.00000000000000E+00  -2.25472103239816E-04  -1.71531516763695E-24
     -2.25472103239816E-04   1.37726520739291E-15
      1.00000000000000E-01
     -7.50000000000000E-01  -7.50000000000000E-01   0.00000000000000E+00   0.00000000000000E+00   1.62335526840481E-36
     -1.62335526840481E-36   0.00000000000000E+00  -5.19178495789526E-16   0.00000000000000E+00   0.00000000000000E+00
      0.00000000000000E+00   0.00000000000000E+00  -6.88526384434709E-18  -5.34961432148626E-15  -5.35649958533061E-15
     -3.41216273597419E-15   1.00000000000000E+00   1.00000000000000E+00   0.00000000000000E+00   0.00000000000000E+00
      2.29453979088189E-04   7.58329154004390E-21   2.29453979088189E-04   2.55727565774771E-15   0.00000000000000E+00
      0.00000000000000E+00   0.00000000000000E+00   0.00000000000000E+00  -2.29453979082832E-04  -1.78661665032607E-24
     -2.29453979082832E-04   1.37406557401599E-15
      1.27172519017236E-01
     -6.82068702456911E-01  -6.82068702456911E-01   0.00000000000000E+00   0.00000000000000E+00   1.62187313488565E-36
     -1.62187313488565E-36   0.00000000000000E+00  -4.93472300495458E-16   0.00000000000000E+00   0.00000000000000E+00
      0.00000000000000E+00   0.00000000000000E+00  -1.80221464761942E-15  -5.35104987627287E-15  -7.15326452389229E-15
     -3.41429736480643E-15   1.00000000000000E+00   1.00000000000000E+00   0.00000000000000E+00   0.00000000000000E+00
      2.44236922277633E-04   7.58506962179965E-21   2.44236922277633E-04   2.54537399562712E-15   0.00000000000000E+00
      0.00000000000000E+00   0.00000000000000E+00   0.00000000000000E+00  -2.44236922270480E-04  -1.89942534573605E-24
     -2.44236922270480E-04   1.36239566967478E-15
      1.61953343359297E-01
     -5.95116641601756E-01  -5.95116641601756E-01   0.00000000000000E+00   0.00000000000000E+00   2.03143936101265E-36
     -2.03143936101265E-36   0.00000000000000E+00  -4.60577223697121E-16   0.00000000000000E+00   0.00000000000000E+00
      0.00000000000000E+00   0.00000000000000E+00  -4.37444436239730E-14  -5.35292434307137E-15  -4.90973679670443E-14
     -3.41709403892311E-15   1.00000000000000E+00   1.00000000000000E+00   0.00000000000000E+00   0.00000000000000E+00
      2.63677958307330E-04   7.58740648205323E-21   2.63677958307330E-04   2.53017000179095E-15   0.00000000000000E+00
      0.00000000000000E+00   0.00000000000000E+00   0.00000000000000E+00  -2.63677958258233E-04  -2.01608978392271E-24
     -2.63677958258233E-04   1.34750126082928E-15
      2.00000000000000E-01
     -5.00000000000000E-01  -5.00000000000000E-01   0.00000000000000E+00   0.00000000000000E+00   2.57361941665709E-36
     -2.57361941665709E-36   0.00000000000000E+00  -4.24606768028377E-16   0.00000000000000E+00   0.00000000000000E+00
      0.00000000000000E+00   0.00000000000000E+00  -9.48138473254947E-14  -5.35501789886439E-15  -1.00168865224359E-13
     -3.42023160515181E-15   1.00000000000000E+00   1.00000000000000E+00   0.00000000000000E+00   0.00000000000000E+00
      2.85570917509743E-04   7.59003653360136E-21   2.85570917509743E-04   2.51357627798661E-15   0.00000000000000E+00
      0.00000000000000E+00   0.00000000000000E+00   0.00000000000000E+00  -2.85570917409574E-04  -2.22623089125168E-24
     -2.85570917409574E-04   1.33126209519358E-15
      2.44519455157839E-01
     -3.88701362105403E-01  -3.88701362105403E-01   0.00000000000000E+00   0.00000000000000E+00   2.78648114013072E-36
     -2.78648114013072E-36   0.00000000000000E+00  -3.82537851988209E-16   0.00000000000000E+00   0.00000000000000E+00
      0.00000000000000E+00   0.00000000000000E+00  -2.48035015018971E-13  -5.35751836933201E-15  -2.53392533388303E-13
     -3.42399961573201E-15   1.00000000000000E+00   1.00000000000000E+00   0.00000000000000E+00   0.00000000000000E+00
      3.11959485593862E-04   7.59320517385459E-21   3.11959485593862E-04   2.49420824604068E-15   0.00000000000000E+00
      0.00000000000000E+00   0.00000000000000E+00   0.00000000000000E+00  -3.11959485340470E-04  -2.42595159380964E-24
     -3.11959485340470E-04   1.31232922167953E-15
      3.00000000000000E-01
     -2.50000000000000E-01  -2.50000000000000E-01   0.00000000000000E+00   0.00000000000000E+00  -3.51098661822561E-35
      3.51098661822561E-35   0.00000000000000E+00  -3.30149301466557E-16   0.00000000000000E+00   0.00000000000000E+00
      0.00000000000000E+00   0.00000000000000E+00  -9.83002878732771E-13  -5.36070038720506E-15  -9.88363579119976E-13
     -3.42882949297254E-15   1.00000000000000E+00   1.00000000000000E+00   0.00000000000000E+00   0.00000000000000E+00
      3.45906062756909E-04   7.59727917682245E-21   3.45906062756909E-04   2.47014311438066E-15   0.00000000000000E+00
      0.00000000000000E+00   0.00000000000000E+00   0.00000000000000E+00  -3.45906061768545E-04  -2.80744341311095E-24
     -3.45906061768545E-04   1.28883568005844E-15
      3.56984902602034E-01
     -1.07537743494915E-01  -1.07537743494915E-01   0.00000000000000E+00   0.00000000000000E+00  -2.55141524460572E-34
      2.55141524460572E-34   0.00000000000000E+00  -2.76392999811215E-16   0.00000000000000E+00   0.00000000000000E+00
      0.00000000000000E+00   0.00000000000000E+00  -1.27638424288729E-12  -5.36403195151998E-15  -1.28174827483881E-12
     -3.43393108386312E-15   1.00000000000000E+00   1.00000000000000E+00   0.00000000000000E+00   0.00000000000000E+00
      3.81871655360318E-04   7.60159266697408E-21   3.81871655360318E-04   2.44550616182963E-15   0.00000000000000E+00
      0.00000000000000E+00   0.00000000000000E+00   0.00000000000000E+00  -3.81871654078570E-04  -3.05372531094142E-24
     -3.81871654078570E-04   1.26481792184471E-15
      4.00000000000000E-01
      0.00000000000000E+00   0.00000000000000E+00   0.00000000000000E+00   0.00000000000000E+00  -8.73732711942138E-35
      8.73732711942138E-35   0.00000000000000E+00  -2.35856647667925E-16   0.00000000000000E+00   0.00000000000000E+00
      0.00000000000000E+00   0.00000000000000E+00  -1.97750454402794E-13  -5.36658152068659E-15  -2.03117035923481E-13
     -3.43786746549665E-15   1.00000000000000E+00   1.00000000000000E+00   0.00000000000000E+00   0.00000000000000E+00
      4.09679382906405E-04   7.60492802177377E-21   4.09679382906405E-04   2.42696214912633E-15   0.00000000000000E+00
      0.00000000000000E+00   0.00000000000000E+00   0.00000000000000E+00  -4.09679382703288E-04  -3.19107906233311E-24
     -4.09679382703288E-04   1.24676196403825E-15
      4.72940675330603E-01
      1.82351688326509E-01   1.82351688326509E-01   0.00000000000000E+00   0.00000000000000E+00   1.61521904457255E-36
     -1.61521904457255E-36   0.00000000000000E+00  -1.67215461190159E-16   0.00000000000000E+00   0.00000000000000E+00
      0.00000000000000E+00   0.00000000000000E+00  -1.40584597243048E-18  -5.37095796099419E-15  -5.37236380696662E-15
     -3.44469268883791E-15   1.00000000000000E+00   1.00000000000000E+00   0.00000000000000E+00   0.00000000000000E+00
      4.57970021919575E-04   7.61072202261307E-21   4.57970021919575E-04   2.39562100531445E-15   0.00000000000000E+00
      0.00000000000000E+00   0.00000000000000E+00   0.00000000000000E+00  -4.57970021914203E-04  -3.57021799960107E-24
     -4.57970021914203E-04   1.21628714471362E-15
      5.00000000000000E-01
      2.50000000000000E-01   2.50000000000000E-01   0.00000000000000E+00   0.00000000000000E+00  -5.53308646983664E-35
      5.53308646983664E-35   0.00000000000000E+00  -1.41785942132566E-16   0.00000000000000E+00   0.00000000000000E+00
      0.00000000000000E+00   0.00000000000000E+00  -1.71142511970598E-14  -5.37259487922876E-15  -2.24868460762886E-14
     -3.44726829663894E-15   1.00000000000000E+00   1.00000000000000E+00   0.00000000000000E+00   0.00000000000000E+00
      4.76209494183332E-04   7.61291130493376E-21   4.76209494183332E-04   2.38402732564027E-15   0.00000000000000E+00
      0.00000000000000E+00   0.00000000000000E+00   0.00000000000000E+00  -4.76209494160845E-04  -3.71809918262094E-24
     -4.76209494160845E-04   1.20502691313124E-15
      5.91905250916560E-01
      4.79763127291401E-01   4.79763127291401E-01   0.00000000000000E+00   0.00000000000000E+00   1.70979044065251E-36
     -1.70979044065251E-36   0.00000000000000E+00  -5.55792775936056E-17   0.00000000000000E+00   0.00000000000000E+00
      0.00000000000000E+00   0.00000000000000E+00  -6.07426345240872E-18  -5.37819120258214E-15  -5.38426546603455E-15
     -3.45617060654130E-15   1.00000000000000E+00   1.00000000000000E+00   0.00000000000000E+00   0.00000000000000E+00
      5.39279053676554E-04   7.62048612768415E-21   5.39279053676554E-04   2.34478594594634E-15   0.00000000000000E+00
      0.00000000000000E+00   0.00000000000000E+00   0.00000000000000E+00  -5.39279053671170E-04  -4.22001069154129E-24
     -5.39279053671170E-04   1.16696393818856E-15
      6.00000000000000E-01
      5.00000000000000E-01   5.00000000000000E-01   0.00000000000000E+00   0.00000000000000E+00   5.49453577438094E-37
     -5.49453577438094E-37   0.00000000000000E+00  -4.79996204898660E-17   0.00000000000000E+00   0.00000000000000E+00
      0.00000000000000E+00   0.00000000000000E+00  -8.24081028227540E-17  -5.37868605590037E-15  -5.46109415872312E-15
     -3.45696513745068E-15   1.00000000000000E+00   1.00000000000000E+00   0.00000000000000E+00   0.00000000000000E+00
      5.44908242371591E-04   7.62116261881135E-21   5.44908242371591E-04   2.34133986071053E-15   0.00000000000000E+00
      0.00000000000000E+00   0.00000000000000E+00   0.00000000000000E+00  -5.44908242366132E-04  -4.24587565264688E-24
     -5.44908242366132E-04   1.16362489723003E-15
      7.00000000000000E-01
      7.50000000000000E-01   7.50000000000000E-01   0.00000000000000E+00   0.00000000000000E+00   1.64808133023729E-34
     -1.64808133023729E-34   0.00000000000000E+00   4.54384590571377E-17   0.00000000000000E+00   0.00000000000000E+00
      0.00000000000000E+00   0.00000000000000E+00  -4.49464104728568E-18  -5.38481106329408E-15  -5.38930570434137E-15
     -3.46690082128456E-15   1.00000000000000E+00   1.00000000000000E+00   0.00000000000000E+00   0.00000000000000E+00
      6.15272986318043E-04   7.62962568569229E-21   6.15272986318043E-04   2.29890761834865E-15   0.00000000000000E+00
      0.00000000000000E+00   0.00000000000000E+00   0.00000000000000E+00  -6.15272986312656E-04  -4.83543360004182E-24
     -6.15272986312656E-04   1.12255474387878E-15
      8.00000000000000E-01
      1.00000000000000E+00   1.00000000000000E+00   0.00000000000000E+00   0.00000000000000E+00   3.95332890377851E-34
     -3.95332890377851E-34   0.00000000000000E+00   1.38468911984963E-16   0.00000000000000E+00   0.00000000000000E+00
      0.00000000000000E+00   0.00000000000000E+00  -6.90218874313547E-19  -5.39093460582495E-15  -5.39162482469926E-15
     -3.47702677918815E-15   1.00000000000000E+00   1.00000000000000E+00   0.00000000000000E+00   0.00000000000000E+00
      6.86876339205258E-04   7.63824678109486E-21   6.86876339205258E-04   2.25674226645124E-15   0.00000000000000E+00
      0.00000000000000E+00   0.00000000000000E+00   0.00000000000000E+00  -6.86876339199868E-04  -5.38087174897887E-24
     -6.86876339199868E-04   1.08181560075195E-15
      9.00000000000000E-01
      1.25000000000000E+00   1.25000000000000E+00   0.00000000000000E+00   0.00000000000000E+00   9.94232139665073E-34
     -9.94232139665073E-34   0.00000000000000E+00   2.31041866590075E-16   0.00000000000000E+00   0.00000000000000E+00
      0.00000000000000E+00   0.00000000000000E+00  -9.68319891003240E-18  -5.39702881124786E-15  -5.40671201015789E-15
     -3.48730247738122E-15   1.00000000000000E+00   1.00000000000000E+00   0.00000000000000E+00   0.00000000000000E+00
      7.59359859961068E-04   7.64698353547630E-21   7.59359859961068E-04   2.21485623475562E-15   0.00000000000000E+00
      0.00000000000000E+00   0.00000000000000E+00   0.00000000000000E+00  -7.59359859955663E-04  -5.96514148812611E-24
     -7.59359859955663E-04   1.04140437603552E-15
      1.00000000000000E+00
      1.50000000000000E+00   1.50000000000000E+00   0.00000000000000E+00   0.00000000000000E+00   3.51091598271092E-33
     -3.51091598271092E-33   0.00000000000000E+00   3.23119731310418E-16   0.00000000000000E+00   0.00000000000000E+00
      0.00000000000000E+00   0.00000000000000E+00   9.94149040033754E-18  -5.40307204448420E-15  -5.39313055408386E-15
     -3.49769443775877E-15   1.00000000000000E+00   1.00000000000000E+00   0.00000000000000E+00   0.00000000000000E+00
      8.32425941459006E-04   7.65580863557580E-21   8.32425941459006E-04   2.17325905728429E-15   0.00000000000000E+00
      0.00000000000000E+00   0.00000000000000E+00   0.00000000000000E+00  -8.32425941453615E-04  -6.51608816930504E-24
     -8.32425941453615E-04   1.00131564916407E-15
}
