DF-ISE text

Info {
  version   = 1.0
  type      = xyplot
  datasets  = [
    "time"
    "gate OuterVoltage" "gate InnerVoltage" "gate QuasiFermiPotential" "gate DisplacementCurrent" "gate eCurrent"
    "gate hCurrent" "gate TotalCurrent" "gate Charge" "substrate OuterVoltage" "substrate InnerVoltage"
    "substrate QuasiFermiPotential" "substrate DisplacementCurrent" "substrate eCurrent" "substrate hCurrent" "substrate TotalCurrent"
    "substrate Charge" "drain OuterVoltage" "drain InnerVoltage" "drain QuasiFermiPotential" "drain DisplacementCurrent"
    "drain eCurrent" "drain hCurrent" "drain TotalCurrent" "drain Charge" "source OuterVoltage"
    "source InnerVoltage" "source QuasiFermiPotential" "source DisplacementCurrent" "source eCurrent" "source hCurrent"
    "source TotalCurrent" "source Charge" ]
  functions = [
    Time
    OuterVoltage InnerVoltage QuasiFermiPotential DisplacementCurrent eCurrent
    hCurrent TotalCurrent Charge OuterVoltage InnerVoltage
    QuasiFermiPotential DisplacementCurrent eCurrent hCurrent TotalCurrent
    Charge OuterVoltage InnerVoltage QuasiFermiPotential DisplacementCurrent
    eCurrent hCurrent TotalCurrent Charge OuterVoltage
    InnerVoltage QuasiFermiPotential DisplacementCurrent eCurrent hCurrent
    TotalCurrent Charge ]
}

Data {
      0.00000000000000E+00
      1.00000000000000E+00   1.00000000000000E+00   0.00000000000000E+00   0.00000000000000E+00   1.28107780398930E-36
     -1.28107780398930E-36   0.00000000000000E+00   8.58703013648085E-16   0.00000000000000E+00   0.00000000000000E+00
      0.00000000000000E+00   0.00000000000000E+00   6.75767192686426E-15   9.25755618478156E-19   6.75859768248273E-15
      2.34939289736866E-15  -1.00000000000000E+00  -1.00000000000000E+00   0.00000000000000E+00   0.00000000000000E+00
      4.43545864437006E-21  -1.02021355003070E-10  -1.02021354998634E-10  -2.01196796114677E-15   0.00000000000000E+00
      0.00000000000000E+00   0.00000000000000E+00   0.00000000000000E+00  -1.55226769804888E-27   1.02014596400952E-10
      1.02014596400952E-10  -1.19612794986997E-15
      1.00000000000000E-03
      9.97500000000000E-01   9.97500000000000E-01   0.00000000000000E+00   0.00000000000000E+00   1.24888840199274E-36
     -1.24888840199274E-36   0.00000000000000E+00   8.57328337706943E-16   0.00000000000000E+00   0.00000000000000E+00
      0.00000000000000E+00   0.00000000000000E+00   6.75592356438513E-15   1.40609301546196E-20   6.75593762531529E-15
      2.34946739437858E-15  -1.00000000000000E+00  -1.00000000000000E+00   0.00000000000000E+00   0.00000000000000E+00
     -3.05753077529651E-20  -1.04853273699013E-10  -1.04853273729588E-10  -2.01131108908638E-15   0.00000000000000E+00
      0.00000000000000E+00   0.00000000000000E+00   0.00000000000000E+00   5.32737809170307E-28   1.04846517791963E-10
      1.04846517791963E-10  -1.19548464299914E-15
      2.28000000000000E-03
      9.94300000000000E-01   9.94300000000000E-01   0.00000000000000E+00   0.00000000000000E+00   1.56615394707048E-36
     -1.56615394707048E-36   0.00000000000000E+00   8.55568755068109E-16   0.00000000000000E+00   0.00000000000000E+00
      0.00000000000000E+00   0.00000000000000E+00   6.75357572985515E-15  -2.17376526513122E-14  -1.49840769214570E-14
      2.34956282888887E-15  -1.00000000000000E+00  -1.00000000000000E+00   0.00000000000000E+00   0.00000000000000E+00
      2.99989706172127E-20  -1.08593322577247E-10  -1.08593322547248E-10  -2.01047029498903E-15   0.00000000000000E+00
      0.00000000000000E+00   0.00000000000000E+00   0.00000000000000E+00  -3.44231544817581E-28   1.08608306624170E-10
      1.08608306624170E-10  -1.19466128896793E-15
      3.94400000000000E-03
      9.90140000000000E-01   9.90140000000000E-01   0.00000000000000E+00   0.00000000000000E+00   2.13733108967381E-36
     -2.13733108967381E-36   0.00000000000000E+00   8.53281301912834E-16   0.00000000000000E+00   0.00000000000000E+00
      0.00000000000000E+00   0.00000000000000E+00   6.75062477692811E-15  -6.19917860879290E-14  -5.52411613110009E-14
      2.34968702603161E-15  -1.00000000000000E+00  -1.00000000000000E+00   0.00000000000000E+00   0.00000000000000E+00
     -3.48384293737754E-22  -1.13655819087526E-10  -1.13655819087874E-10  -2.00937726635525E-15   0.00000000000000E+00
      0.00000000000000E+00   0.00000000000000E+00   0.00000000000000E+00   4.57926723352751E-28   1.13711060249186E-10
      1.13711060249186E-10  -1.19359106158922E-15
      6.10720000000000E-03
      9.84732000000000E-01   9.84732000000000E-01   0.00000000000000E+00   0.00000000000000E+00   1.24495347403290E-36
     -1.24495347403290E-36   0.00000000000000E+00   8.50307619965050E-16   0.00000000000000E+00   0.00000000000000E+00
      0.00000000000000E+00   0.00000000000000E+00   6.74671155413483E-15  -1.70672872303471E-20   6.74669448684760E-15
      2.34984870759111E-15  -1.00000000000000E+00  -1.00000000000000E+00   0.00000000000000E+00   0.00000000000000E+00
      2.41537244975050E-20  -1.20591832788240E-10  -1.20591832764086E-10  -2.00795633559350E-15   0.00000000000000E+00
      0.00000000000000E+00   0.00000000000000E+00   0.00000000000000E+00  -3.45650679842119E-28   1.20585086069600E-10
      1.20585086069600E-10  -1.19219999196266E-15
      8.74630400000000E-03
      9.78134240000000E-01   9.78134240000000E-01   0.00000000000000E+00   0.00000000000000E+00   1.24788717535517E-36
     -1.24788717535517E-36   0.00000000000000E+00   8.46679738798799E-16   0.00000000000000E+00   0.00000000000000E+00
      0.00000000000000E+00   0.00000000000000E+00   6.74193862975243E-15   2.55375940694124E-19   6.74219400569313E-15
      2.35004630731329E-15  -1.00000000000000E+00  -1.00000000000000E+00   0.00000000000000E+00   0.00000000000000E+00
      3.18188934399083E-20  -1.29630314990452E-10  -1.29630314958633E-10  -2.00622281038919E-15   0.00000000000000E+00
      0.00000000000000E+00   0.00000000000000E+00   0.00000000000000E+00  -1.10340233874081E-27   1.29623572764628E-10
      1.29623572764628E-10  -1.19050323572290E-15
      1.20715750400000E-02
      9.69821062400000E-01   9.69821062400000E-01   0.00000000000000E+00   0.00000000000000E+00   1.25473563439392E-36
     -1.25473563439392E-36   0.00000000000000E+00   8.42108625158111E-16   0.00000000000000E+00   0.00000000000000E+00
      0.00000000000000E+00   0.00000000000000E+00   6.73600722957690E-15   4.61640863136101E-19   6.73646887044004E-15
      2.35029583456873E-15  -1.00000000000000E+00  -1.00000000000000E+00   0.00000000000000E+00   0.00000000000000E+00
     -7.43044460344975E-20  -1.41990577176102E-10  -1.41990577250407E-10  -2.00403858564786E-15   0.00000000000000E+00
      0.00000000000000E+00   0.00000000000000E+00   0.00000000000000E+00   7.24246757186330E-28   1.41983840781536E-10
      1.41983840781536E-10  -1.18836587407896E-15
      1.63279219712000E-02
      9.59180195072000E-01   9.59180195072000E-01   0.00000000000000E+00   0.00000000000000E+00   1.26999354628609E-36
     -1.26999354628609E-36   0.00000000000000E+00   8.36257626139631E-16   0.00000000000000E+00   0.00000000000000E+00
      0.00000000000000E+00   0.00000000000000E+00   6.72821682359696E-15  -6.47066067023312E-19   6.72756975752993E-15
      2.35061614078960E-15  -1.00000000000000E+00  -1.00000000000000E+00   0.00000000000000E+00   0.00000000000000E+00
     -6.77098880098682E-20  -1.59548110045428E-10  -1.59548110113138E-10  -2.00124280744349E-15   0.00000000000000E+00
      0.00000000000000E+00   0.00000000000000E+00   0.00000000000000E+00  -1.72727326643771E-28   1.59541382543381E-10
      1.59541382543381E-10  -1.18563095948575E-15
      2.17760460431360E-02
      9.45559884892160E-01   9.45559884892160E-01   0.00000000000000E+00   0.00000000000000E+00   1.23181532246045E-36
     -1.23181532246045E-36   0.00000000000000E+00   8.28768389363294E-16   0.00000000000000E+00   0.00000000000000E+00
      0.00000000000000E+00   0.00000000000000E+00   6.71812830230316E-15  -1.00732044149522E-19   6.71802757025901E-15
      2.35102765523002E-15  -1.00000000000000E+00  -1.00000000000000E+00   0.00000000000000E+00   0.00000000000000E+00
     -3.73915439974344E-20  -1.85227797270758E-10  -1.85227797308149E-10  -1.99766426338853E-15   0.00000000000000E+00
      0.00000000000000E+00   0.00000000000000E+00   0.00000000000000E+00   3.82186206728988E-28   1.85221079280579E-10
      1.85221079280579E-10  -1.18213178120480E-15
      2.87496448552141E-02
      9.28125887861965E-01   9.28125887861965E-01   0.00000000000000E+00   0.00000000000000E+00   1.27521674735678E-36
     -1.27521674735678E-36   0.00000000000000E+00   8.19182232006658E-16   0.00000000000000E+00   0.00000000000000E+00
      0.00000000000000E+00   0.00000000000000E+00   6.70507794621017E-15  -2.46861932465717E-19   6.70483108427770E-15
      2.35155695095946E-15  -1.00000000000000E+00  -1.00000000000000E+00   0.00000000000000E+00   0.00000000000000E+00
     -2.50510091408489E-20  -2.24219679592049E-10  -2.24219679617100E-10  -1.99308382034553E-15   0.00000000000000E+00
      0.00000000000000E+00   0.00000000000000E+00   0.00000000000000E+00   4.79897747105038E-29   2.24212974786016E-10
      2.24212974786016E-10  -1.17765536262060E-15
      3.76758513346740E-02
      9.05810371663315E-01   9.05810371663315E-01   0.00000000000000E+00   0.00000000000000E+00   1.27946691145030E-36
     -1.27946691145030E-36   0.00000000000000E+00   8.06912051297182E-16   0.00000000000000E+00   0.00000000000000E+00
      0.00000000000000E+00   0.00000000000000E+00   6.68807118182399E-15  -8.49552240769469E-19   6.68722162958322E-15
      2.35223877459559E-15  -1.00000000000000E+00  -1.00000000000000E+00   0.00000000000000E+00   0.00000000000000E+00
      2.79954033365201E-21  -2.86333698045276E-10  -2.86333698042476E-10  -1.98722102359039E-15   0.00000000000000E+00
      0.00000000000000E+00   0.00000000000000E+00   0.00000000000000E+00   4.12691363551938E-28   2.86327010820847E-10
      2.86327010820847E-10  -1.17192980230238E-15
      4.91013956283827E-02
      8.77246510929043E-01   8.77246510929043E-01   0.00000000000000E+00   0.00000000000000E+00   1.26963712420737E-36
     -1.26963712420737E-36   0.00000000000000E+00   7.91206368647432E-16   0.00000000000000E+00   0.00000000000000E+00
      0.00000000000000E+00   0.00000000000000E+00   6.66584228650471E-15   8.93522944006868E-19   6.66673580944871E-15
      2.35311888907351E-15  -1.00000000000000E+00  -1.00000000000000E+00   0.00000000000000E+00   0.00000000000000E+00
     -4.18980655432307E-20  -3.91552869949496E-10  -3.91552869991394E-10  -1.97971696068682E-15   0.00000000000000E+00
      0.00000000000000E+00   0.00000000000000E+00   0.00000000000000E+00  -5.33316977466732E-29   3.91546203255584E-10
      3.91546203255584E-10  -1.16460829703410E-15
      6.37260923243299E-02
      8.40684769189175E-01   8.40684769189175E-01   0.00000000000000E+00   0.00000000000000E+00   1.28668605033995E-36
     -1.28668605033995E-36   0.00000000000000E+00   7.71103298841506E-16   0.00000000000000E+00   0.00000000000000E+00
      0.00000000000000E+00   0.00000000000000E+00   6.63611338554710E-15  -1.03117663788001E-19   6.63601026788331E-15
      2.35425817360598E-15  -1.00000000000000E+00  -1.00000000000000E+00   0.00000000000000E+00   0.00000000000000E+00
      1.94878244054333E-21  -5.84389643092982E-10  -5.84389643091033E-10  -1.97011236292366E-15   0.00000000000000E+00
      0.00000000000000E+00   0.00000000000000E+00   0.00000000000000E+00  -2.44691650265520E-28   5.84383007080764E-10
      5.84383007080764E-10  -1.15524910952382E-15
      8.21532101612234E-02
      7.94616974596942E-01   7.94616974596942E-01   0.00000000000000E+00   0.00000000000000E+00   1.25696275354104E-36
     -1.25696275354104E-36   0.00000000000000E+00   7.45773660182327E-16   0.00000000000000E+00   0.00000000000000E+00
      0.00000000000000E+00   0.00000000000000E+00   6.59613388444850E-15   4.57612826816771E-19   6.59659149727532E-15
      2.35571543564242E-15  -1.00000000000000E+00  -1.00000000000000E+00   0.00000000000000E+00   0.00000000000000E+00
     -1.25083010001052E-19  -9.67510877300345E-10  -9.67510877425428E-10  -1.95801171536453E-15   0.00000000000000E+00
      0.00000000000000E+00   0.00000000000000E+00   0.00000000000000E+00   7.77421873862893E-28   9.67504280833929E-10
      9.67504280833929E-10  -1.14347738046023E-15
      1.00000000000000E-01
      7.50000000000000E-01   7.50000000000000E-01   0.00000000000000E+00   0.00000000000000E+00   1.25367631428409E-36
     -1.25367631428409E-36   0.00000000000000E+00   7.21241828874330E-16   0.00000000000000E+00   0.00000000000000E+00
      0.00000000000000E+00   0.00000000000000E+00   6.55313252207838E-15  -1.22065842585836E-19   6.55301045623579E-15
      2.35715178122980E-15  -1.00000000000000E+00  -1.00000000000000E+00   0.00000000000000E+00   0.00000000000000E+00
     -2.91730966920846E-20  -1.57554416380011E-09  -1.57554416382928E-09  -1.94629361620376E-15   0.00000000000000E+00
      0.00000000000000E+00   0.00000000000000E+00   0.00000000000000E+00  -1.10809341319498E-27   1.57553761081882E-09
      1.57553761081882E-09  -1.13209999390037E-15
      1.22849626117748E-01
      6.92875934705630E-01   6.92875934705630E-01   0.00000000000000E+00   0.00000000000000E+00   1.27636115542556E-36
     -1.27636115542556E-36   0.00000000000000E+00   6.89833023053292E-16   0.00000000000000E+00   0.00000000000000E+00
      0.00000000000000E+00   0.00000000000000E+00   6.49563304600782E-15   5.44257102846779E-20   6.49568747171811E-15
      2.35903005607934E-15  -1.00000000000000E+00  -1.00000000000000E+00   0.00000000000000E+00   0.00000000000000E+00
     -4.95769401863043E-21  -2.93759016336572E-09  -2.93759016337067E-09  -1.93129324259450E-15   0.00000000000000E+00
      0.00000000000000E+00   0.00000000000000E+00   0.00000000000000E+00   1.80047048234057E-29   2.93758366768321E-09
      2.93758366768321E-09  -1.11756983653813E-15
      1.51183162503755E-01
      6.22042093740612E-01   6.22042093740612E-01   0.00000000000000E+00   0.00000000000000E+00   1.25927578851848E-36
     -1.25927578851848E-36   0.00000000000000E+00   6.50885029942087E-16   0.00000000000000E+00   0.00000000000000E+00
      0.00000000000000E+00   0.00000000000000E+00   6.43697955998370E-15  -3.56961068521157E-19   6.43662259891518E-15
      2.36142750823057E-15  -1.00000000000000E+00  -1.00000000000000E+00   0.00000000000000E+00   0.00000000000000E+00
      4.63692265793803E-20  -6.34208554641863E-09  -6.34208554637226E-09  -1.91269775527019E-15   0.00000000000000E+00
      0.00000000000000E+00   0.00000000000000E+00   0.00000000000000E+00   2.81978907247646E-28   6.34207910974968E-09
      6.34207910974968E-09  -1.09961478290247E-15
      1.86316747622404E-01
      5.34208130943989E-01   5.34208130943989E-01   0.00000000000000E+00   0.00000000000000E+00   1.27103230665402E-36
     -1.27103230665402E-36   0.00000000000000E+00   6.02585581902154E-16   0.00000000000000E+00   0.00000000000000E+00
      0.00000000000000E+00   0.00000000000000E+00   6.38360832368609E-15  -2.46522247534748E-19   6.38336180143856E-15
      2.36452205444395E-15  -1.00000000000000E+00  -1.00000000000000E+00   0.00000000000000E+00   0.00000000000000E+00
     -3.76063482369884E-20  -1.63665709125619E-08  -1.63665709125995E-08  -1.88964942692662E-15   0.00000000000000E+00
      0.00000000000000E+00   0.00000000000000E+00   0.00000000000000E+00  -1.68749726838463E-28   1.63665645292377E-08
      1.63665645292377E-08  -1.07745820941950E-15
      2.00000000000000E-01
      5.00000000000000E-01   5.00000000000000E-01   0.00000000000000E+00   0.00000000000000E+00   1.25522854497453E-36
     -1.25522854497453E-36   0.00000000000000E+00   5.83772621827402E-16   0.00000000000000E+00   0.00000000000000E+00
      0.00000000000000E+00   0.00000000000000E+00   6.36616064463286E-15  -1.99041611296940E-19   6.36596160302156E-15
      2.36576918626387E-15  -1.00000000000000E+00  -1.00000000000000E+00   0.00000000000000E+00   0.00000000000000E+00
      2.38883362274205E-20  -2.36171108656579E-08  -2.36171108656340E-08  -1.88067682458117E-15   0.00000000000000E+00
      0.00000000000000E+00   0.00000000000000E+00   0.00000000000000E+00   2.23604506667735E-27   2.36171044996725E-08
      2.36171044996725E-08  -1.06886498351010E-15
      2.43565645547125E-01
      3.91085886132188E-01   3.91085886132188E-01   0.00000000000000E+00   0.00000000000000E+00   1.27416978282701E-36
     -1.27416978282701E-36   0.00000000000000E+00   5.23860212720134E-16   0.00000000000000E+00   0.00000000000000E+00
      0.00000000000000E+00   0.00000000000000E+00   6.31939526745068E-15  -9.74567950633158E-19   6.31842069950004E-15
      2.36992939664118E-15  -1.00000000000000E+00  -1.00000000000000E+00   0.00000000000000E+00   0.00000000000000E+00
     -9.74659843778062E-21  -7.49320868844009E-08  -7.49320868844107E-08  -1.85212964137407E-15   0.00000000000000E+00
      0.00000000000000E+00   0.00000000000000E+00   0.00000000000000E+00   6.02298323689130E-27   7.49320805659902E-08
      7.49320805659902E-08  -1.04165996798725E-15
      2.97587046025560E-01
      2.56032384936100E-01   2.56032384936100E-01   0.00000000000000E+00   0.00000000000000E+00   1.25253849527023E-36
     -1.25253849527023E-36   0.00000000000000E+00   4.49505914576867E-16   0.00000000000000E+00   0.00000000000000E+00
      0.00000000000000E+00   0.00000000000000E+00   6.27330873086921E-15   5.07614630376715E-19   6.27381634549958E-15
      2.37561868044736E-15  -1.00000000000000E+00  -1.00000000000000E+00   0.00000000000000E+00   0.00000000000000E+00
      8.16829938696208E-21  -3.00685934696882E-07  -3.00685934696873E-07  -1.81680190229897E-15   0.00000000000000E+00
      0.00000000000000E+00   0.00000000000000E+00   0.00000000000000E+00   2.21128036693813E-26   3.00685928423058E-07
      3.00685928423058E-07  -1.00832269272523E-15
      3.00000000000000E-01
      2.50000000000000E-01   2.50000000000000E-01   0.00000000000000E+00   0.00000000000000E+00   1.27591747726148E-36
     -1.27591747726148E-36   0.00000000000000E+00   4.46181937000924E-16   0.00000000000000E+00   0.00000000000000E+00
      0.00000000000000E+00   0.00000000000000E+00   6.27143859705545E-15   3.76076208306291E-17   6.30904621788608E-15
      2.37589080158854E-15  -1.00000000000000E+00  -1.00000000000000E+00   0.00000000000000E+00   0.00000000000000E+00
      4.75246054273608E-22  -3.19434348274444E-07  -3.19434348274444E-07  -1.81522679792049E-15   0.00000000000000E+00
      0.00000000000000E+00   0.00000000000000E+00   0.00000000000000E+00   2.38459756758483E-26   3.19434341965399E-07
      3.19434341965399E-07  -1.00684594066900E-15
      3.66986536593259E-01
      8.25336585168517E-02   8.25336585168517E-02   0.00000000000000E+00   0.00000000000000E+00   1.24799056082104E-36
     -1.24799056082104E-36   0.00000000000000E+00   3.53713928101930E-16   0.00000000000000E+00   0.00000000000000E+00
      0.00000000000000E+00   0.00000000000000E+00   6.22276611212569E-15  -5.06817450282244E-19   6.22225929467541E-15
      2.38435923615932E-15  -1.00000000000000E+00  -1.00000000000000E+00   0.00000000000000E+00   0.00000000000000E+00
     -6.35019045735968E-22  -1.56979381460634E-06  -1.56979381460634E-06  -1.77168584689514E-15   0.00000000000000E+00
      0.00000000000000E+00   0.00000000000000E+00   0.00000000000000E+00   1.20898144161307E-25   1.56979380838409E-06
      1.56979380838409E-06  -9.66387317366106E-16
      4.00000000000000E-01
      0.00000000000000E+00   0.00000000000000E+00   0.00000000000000E+00   0.00000000000000E+00   1.27433852958605E-36
     -1.27433852958605E-36   0.00000000000000E+00   3.07924009469185E-16   0.00000000000000E+00   0.00000000000000E+00
      0.00000000000000E+00   0.00000000000000E+00   6.20197957967271E-15  -3.76994231319344E-19   6.20160258544139E-15
      2.38942981591427E-15  -1.00000000000000E+00  -1.00000000000000E+00   0.00000000000000E+00   0.00000000000000E+00
     -1.22965844586287E-21  -3.15261710259629E-06  -3.15261710259629E-06  -1.75044636574646E-15   0.00000000000000E+00
      0.00000000000000E+00   0.00000000000000E+00   0.00000000000000E+00   2.43808063058898E-25   3.15261709639473E-06
      3.15261709639473E-06  -9.46907459636991E-16
      4.81723574643776E-01
     -2.04308936609441E-01  -2.04308936609441E-01   0.00000000000000E+00   0.00000000000000E+00   1.27012016382532E-36
     -1.27012016382532E-36   0.00000000000000E+00   1.93548514486314E-16   0.00000000000000E+00   0.00000000000000E+00
      0.00000000000000E+00   0.00000000000000E+00   6.16601680455120E-15  -1.30740440313747E-16   6.03527636423745E-15
      2.40563665099932E-15  -1.00000000000000E+00  -1.00000000000000E+00   0.00000000000000E+00   0.00000000000000E+00
     -1.23045509566403E-21  -1.25063324976606E-05  -1.25063324976606E-05  -1.69895753663286E-15   0.00000000000000E+00
      0.00000000000000E+00   0.00000000000000E+00   0.00000000000000E+00   9.65054640203689E-25   1.25063324916254E-05
      1.25063324916254E-05  -9.00227628852784E-16
      5.00000000000000E-01
     -2.50000000000000E-01  -2.50000000000000E-01   0.00000000000000E+00   0.00000000000000E+00   1.26620679707856E-36
     -1.26620679707856E-36   0.00000000000000E+00   1.67748146398340E-16   0.00000000000000E+00   0.00000000000000E+00
      0.00000000000000E+00   0.00000000000000E+00   6.16112383156490E-15  -4.19905609957257E-18   6.15692477546533E-15
      2.41002037473052E-15  -1.00000000000000E+00  -1.00000000000000E+00   0.00000000000000E+00   0.00000000000000E+00
     -1.23074327917577E-21  -1.58928816928192E-05  -1.58928816928192E-05  -1.68769120956802E-15   0.00000000000000E+00
      0.00000000000000E+00   0.00000000000000E+00   0.00000000000000E+00   1.22636294687128E-24   1.58928816866624E-05
      1.58928816866624E-05  -8.90077311560839E-16
      5.50000000000000E-01
     -3.75000000000000E-01  -3.75000000000000E-01   0.00000000000000E+00   0.00000000000000E+00   1.26853787030668E-36
     -1.26853787030668E-36   0.00000000000000E+00   9.67890291525761E-17   0.00000000000000E+00   0.00000000000000E+00
      0.00000000000000E+00   0.00000000000000E+00   6.15214663257970E-15  -1.15817098135142E-18   6.15098846159835E-15
      2.42329346866225E-15  -1.00000000000000E+00  -1.00000000000000E+00   0.00000000000000E+00   0.00000000000000E+00
     -1.23173433523777E-21  -2.75420057589774E-05  -2.75420057589774E-05  -1.65732333399520E-15   0.00000000000000E+00
      0.00000000000000E+00   0.00000000000000E+00   0.00000000000000E+00   2.12700617472034E-24   2.75420057528265E-05
      2.75420057528265E-05  -8.62759163819627E-16
      6.00000000000000E-01
     -5.00000000000000E-01  -5.00000000000000E-01   0.00000000000000E+00   0.00000000000000E+00   1.23978358205625E-36
     -1.23978358205625E-36   0.00000000000000E+00   2.53731430285736E-17   0.00000000000000E+00   0.00000000000000E+00
      0.00000000000000E+00   0.00000000000000E+00   6.14743421423583E-15  -2.18780184748411E-18   6.14524641238835E-15
      2.43816158886822E-15  -1.00000000000000E+00  -1.00000000000000E+00   0.00000000000000E+00   0.00000000000000E+00
     -1.23298549009928E-21  -4.22510814698217E-05  -4.22510814698217E-05  -1.62754897795086E-15   0.00000000000000E+00
      0.00000000000000E+00   0.00000000000000E+00   0.00000000000000E+00   3.26321223614749E-24   4.22510814636766E-05
      4.22510814636766E-05  -8.35985753945941E-16
      6.61000000000000E-01
     -6.52500000000000E-01  -6.52500000000000E-01   0.00000000000000E+00   0.00000000000000E+00   1.98432234802801E-36
     -1.98432234802801E-36   0.00000000000000E+00  -6.22078584644834E-17   0.00000000000000E+00   0.00000000000000E+00
      0.00000000000000E+00   0.00000000000000E+00   6.14464372156136E-15  -1.03350594783535E-16   6.04129312677783E-15
      2.45798318096325E-15  -1.00000000000000E+00  -1.00000000000000E+00   0.00000000000000E+00   0.00000000000000E+00
     -1.23478892834678E-21  -6.34546751525608E-05  -6.34546751525608E-05  -1.59188760955735E-15   0.00000000000000E+00
      0.00000000000000E+00   0.00000000000000E+00   0.00000000000000E+00   4.90063397456904E-24   6.34546751465195E-05
      6.34546751465195E-05  -8.03887712941401E-16
      7.00000000000000E-01
     -7.50000000000000E-01  -7.50000000000000E-01   0.00000000000000E+00   0.00000000000000E+00   2.00542160841473E-36
     -2.00542160841473E-36   0.00000000000000E+00  -1.18391438683026E-16   0.00000000000000E+00   0.00000000000000E+00
      0.00000000000000E+00   0.00000000000000E+00   6.14379876378383E-15   1.01602116522393E-18   6.14481478494905E-15
      2.47142251814415E-15  -1.00000000000000E+00  -1.00000000000000E+00   0.00000000000000E+00   0.00000000000000E+00
     -1.23606621820280E-21  -7.84725044832151E-05  -7.84725044832151E-05  -1.56940575445852E-15   0.00000000000000E+00
      0.00000000000000E+00   0.00000000000000E+00   0.00000000000000E+00   6.06077822761790E-24   7.84725044770702E-05
      7.84725044770702E-05  -7.83625325002604E-16
      7.76860000000000E-01
     -9.42150000000000E-01  -9.42150000000000E-01   0.00000000000000E+00   0.00000000000000E+00   1.21854279923858E-36
     -1.21854279923858E-36   0.00000000000000E+00  -2.29404378621668E-16   0.00000000000000E+00   0.00000000000000E+00
      0.00000000000000E+00   0.00000000000000E+00   6.14343749736078E-15  -8.55745860103168E-17   6.05786291135046E-15
      2.49926636270608E-15  -1.00000000000000E+00  -1.00000000000000E+00   0.00000000000000E+00   0.00000000000000E+00
     -1.23879456361700E-21  -1.10551103553184E-04  -1.10551103553184E-04  -1.52569725737083E-15   0.00000000000000E+00
      0.00000000000000E+00   0.00000000000000E+00   0.00000000000000E+00   8.54158144252675E-24   1.10551103547126E-04
      1.10551103547126E-04  -7.44164726713584E-16
      8.00000000000000E-01
     -1.00000000000000E+00  -1.00000000000000E+00   0.00000000000000E+00   0.00000000000000E+00  -2.62518812556092E-34
      2.62518812556092E-34   0.00000000000000E+00  -2.62879156543963E-16   0.00000000000000E+00   0.00000000000000E+00
      0.00000000000000E+00   0.00000000000000E+00   6.14358741470412E-15  -3.99604181446114E-13  -3.93460594031410E-13
      2.50794278601676E-15  -1.00000000000000E+00  -1.00000000000000E+00   0.00000000000000E+00   0.00000000000000E+00
     -1.23965914717717E-21  -1.20719713405264E-04  -1.20719713405264E-04  -1.51267395935462E-15   0.00000000000000E+00
      0.00000000000000E+00   0.00000000000000E+00   0.00000000000000E+00   9.32945280781841E-24   1.20719713798724E-04
      1.20719713798724E-04  -7.32389670118189E-16
      8.96843600000000E-01
     -1.24210900000000E+00  -1.24210900000000E+00   0.00000000000000E+00   0.00000000000000E+00   2.02543956582092E-34
     -2.02543956582092E-34   0.00000000000000E+00  -4.03119675066354E-16   0.00000000000000E+00   0.00000000000000E+00
      0.00000000000000E+00   0.00000000000000E+00   6.14528395610086E-15  -4.63768192881890E-14  -4.02315353320881E-14
      2.54542354495667E-15  -1.00000000000000E+00  -1.00000000000000E+00   0.00000000000000E+00   0.00000000000000E+00
     -1.24343700539202E-21  -1.65132501143055E-04  -1.65132501143055E-04  -1.45875228387509E-15   0.00000000000000E+00
      0.00000000000000E+00   0.00000000000000E+00   0.00000000000000E+00   1.27633881729768E-23   1.65132501183287E-04
      1.65132501183287E-04  -6.83551586015211E-16
      9.00000000000000E-01
     -1.25000000000000E+00  -1.25000000000000E+00   0.00000000000000E+00   0.00000000000000E+00   1.26754727869728E-36
     -1.26754727869728E-36   0.00000000000000E+00  -4.07692841266515E-16   0.00000000000000E+00   0.00000000000000E+00
      0.00000000000000E+00   0.00000000000000E+00   6.14536849914373E-15  -1.26929741698571E-16   6.01843875744516E-15
      2.54667293309258E-15  -1.00000000000000E+00  -1.00000000000000E+00   0.00000000000000E+00   0.00000000000000E+00
     -1.24356363861475E-21  -1.66621030879157E-04  -1.66621030879157E-04  -1.45700936999636E-15   0.00000000000000E+00
      0.00000000000000E+00   0.00000000000000E+00   0.00000000000000E+00   1.28786041855083E-23   1.66621030873139E-04
      1.66621030873139E-04  -6.81970721829686E-16
      1.00000000000000E+00
     -1.50000000000000E+00  -1.50000000000000E+00   0.00000000000000E+00   0.00000000000000E+00   6.52335978045507E-34
     -6.52335978045507E-34   0.00000000000000E+00  -5.52588449578711E-16   0.00000000000000E+00   0.00000000000000E+00
      0.00000000000000E+00   0.00000000000000E+00   6.14917337554984E-15  -4.27524626596547E-15   1.87392710958437E-15
      2.58700246466954E-15  -1.00000000000000E+00  -1.00000000000000E+00   0.00000000000000E+00   0.00000000000000E+00
     -1.24765530578243E-21  -2.14728207607512E-04  -2.14728207607512E-04  -1.40221571403178E-15   0.00000000000000E+00
      0.00000000000000E+00   0.00000000000000E+00   0.00000000000000E+00   1.66034541031852E-23   2.14728207605638E-04
      2.14728207605638E-04  -6.32198301059074E-16
}
